154996139
  -OEChem-04302101222D

 66 72  0     0  0  0  0  0  0999 V2000
    6.5182    0.8833    0.0000 P   0  0  0  0  0  0  0  0  0  0  0  0
    7.9151    0.5491    0.0000 F   0  0  0  0  0  0  0  0  0  0  0  0
    2.0000    1.0354    0.0000 F   0  0  0  0  0  0  0  0  0  0  0  0
    9.4541   -2.5544    0.0000 F   0  0  0  0  0  0  0  0  0  0  0  0
    5.3859    1.7671    0.0000 F   0  0  0  0  0  0  0  0  0  0  0  0
    7.1417    0.1015    0.0000 O   0  0  0  0  0  0  0  0  0  0  0  0
    5.5182    0.8833    0.0000 O   0  0  0  0  0  0  0  0  0  0  0  0
    6.5182    1.8833    0.0000 O   0  0  0  0  0  0  0  0  0  0  0  0
    7.3000    1.5068    0.0000 O   0  0  0  0  0  0  0  0  0  0  0  0
   11.3723    0.3302    0.0000 O   0  0  0  0  0  0  0  0  0  0  0  0
    3.0593    4.3335    0.0000 O   0  0  0  0  0  0  0  0  0  0  0  0
    6.0182   -1.3074    0.0000 C   0  0  0  0  0  0  0  0  0  0  0  0
    5.1172   -0.8735    0.0000 C   0  0  0  0  0  0  0  0  0  0  0  0
    6.9192   -0.8735    0.0000 C   0  0  0  0  0  0  0  0  0  0  0  0
    4.8947    0.1015    0.0000 C   0  0  0  0  0  0  0  0  0  0  0  0
    5.9243   -2.3448    0.0000 C   0  0  0  0  0  0  0  0  0  0  0  0
    4.3647   -1.5936    0.0000 C   0  0  0  0  0  0  0  0  0  0  0  0
    7.7887   -1.4469    0.0000 C   0  0  0  0  0  0  0  0  0  0  0  0
    3.9042    0.4238    0.0000 C   0  0  0  0  0  0  0  0  0  0  0  0
    6.7804   -2.9381    0.0000 C   0  0  0  0  0  0  0  0  0  0  0  0
    3.3670   -1.2943    0.0000 C   0  0  0  0  0  0  0  0  0  0  0  0
    7.7189   -2.4862    0.0000 C   0  0  0  0  0  0  0  0  0  0  0  0
    3.1352   -0.2788    0.0000 C   0  0  0  0  0  0  0  0  0  0  0  0
    5.2926   -3.2269    0.0000 C   0  0  0  0  0  0  0  0  0  0  0  0
    4.6305   -2.6456    0.0000 C   0  0  0  0  0  0  0  0  0  0  0  0
    8.6846   -1.0026    0.0000 C   0  0  0  0  0  0  0  0  0  0  0  0
    3.6930    1.4012    0.0000 C   0  0  0  0  0  0  0  0  0  0  0  0
    7.2587   -3.9120    0.0000 C   0  0  0  0  0  0  0  0  0  0  0  0
    2.5660   -2.0261    0.0000 C   0  0  0  0  0  0  0  0  0  0  0  0
    5.6876   -4.3807    0.0000 C   0  0  0  0  0  0  0  0  0  0  0  0
    3.8466   -3.3957    0.0000 C   0  0  0  0  0  0  0  0  0  0  0  0
    6.7082   -4.6393    0.0000 C   0  0  0  0  0  0  0  0  0  0  0  0
    2.8074   -3.0839    0.0000 C   0  0  0  0  0  0  0  0  0  0  0  0
    8.7478   -0.0046    0.0000 C   0  0  0  0  0  0  0  0  0  0  0  0
    2.7409    1.7070    0.0000 C   0  0  0  0  0  0  0  0  0  0  0  0
    9.5173   -1.5564    0.0000 C   0  0  0  0  0  0  0  0  0  0  0  0
    4.4338    2.0729    0.0000 C   0  0  0  0  0  0  0  0  0  0  0  0
    9.6437    0.4396    0.0000 C   0  0  0  0  0  0  0  0  0  0  0  0
    2.5296    2.6844    0.0000 C   0  0  0  0  0  0  0  0  0  0  0  0
   10.4132   -1.1121    0.0000 C   0  0  0  0  0  0  0  0  0  0  0  0
    4.2226    3.0503    0.0000 C   0  0  0  0  0  0  0  0  0  0  0  0
   10.4764   -0.1141    0.0000 C   0  0  0  0  0  0  0  0  0  0  0  0
    3.2705    3.3561    0.0000 C   0  0  0  0  0  0  0  0  0  0  0  0
   12.2050   -0.2235    0.0000 C   0  0  0  0  0  0  0  0  0  0  0  0
    2.1072    4.6393    0.0000 C   0  0  0  0  0  0  0  0  0  0  0  0
    8.2325   -2.8335    0.0000 H   0  0  0  0  0  0  0  0  0  0  0  0
    2.5434   -0.0938    0.0000 H   0  0  0  0  0  0  0  0  0  0  0  0
    4.6792   -3.1367    0.0000 H   0  0  0  0  0  0  0  0  0  0  0  0
    5.2264   -2.8169    0.0000 H   0  0  0  0  0  0  0  0  0  0  0  0
    7.8759   -3.9713    0.0000 H   0  0  0  0  0  0  0  0  0  0  0  0
    1.9742   -1.8411    0.0000 H   0  0  0  0  0  0  0  0  0  0  0  0
    5.2674   -4.8366    0.0000 H   0  0  0  0  0  0  0  0  0  0  0  0
    3.9916   -3.9986    0.0000 H   0  0  0  0  0  0  0  0  0  0  0  0
    6.9134   -5.2244    0.0000 H   0  0  0  0  0  0  0  0  0  0  0  0
    2.3545   -3.5074    0.0000 H   0  0  0  0  0  0  0  0  0  0  0  0
    7.0551    2.1933    0.0000 H   0  0  0  0  0  0  0  0  0  0  0  0
    9.6829    1.0584    0.0000 H   0  0  0  0  0  0  0  0  0  0  0  0
    1.9393    2.8740    0.0000 H   0  0  0  0  0  0  0  0  0  0  0  0
   10.9295   -1.4554    0.0000 H   0  0  0  0  0  0  0  0  0  0  0  0
    4.6819    3.4667    0.0000 H   0  0  0  0  0  0  0  0  0  0  0  0
   11.8617   -0.7398    0.0000 H   0  0  0  0  0  0  0  0  0  0  0  0
   12.7213   -0.5669    0.0000 H   0  0  0  0  0  0  0  0  0  0  0  0
   12.5483    0.2927    0.0000 H   0  0  0  0  0  0  0  0  0  0  0  0
    2.2968    5.2296    0.0000 H   0  0  0  0  0  0  0  0  0  0  0  0
    1.5169    4.8289    0.0000 H   0  0  0  0  0  0  0  0  0  0  0  0
    1.9176    4.0490    0.0000 H   0  0  0  0  0  0  0  0  0  0  0  0
  1  6  1  0  0  0  0
  1  7  1  0  0  0  0
  1  8  1  0  0  0  0
  1  9  2  0  0  0  0
  2 34  1  0  0  0  0
  3 35  1  0  0  0  0
  4 36  1  0  0  0  0
  5 37  1  0  0  0  0
  6 14  1  0  0  0  0
  7 15  1  0  0  0  0
  8 56  1  0  0  0  0
 10 42  1  0  0  0  0
 10 44  1  0  0  0  0
 11 43  1  0  0  0  0
 11 45  1  0  0  0  0
 12 13  1  0  0  0  0
 12 14  2  0  0  0  0
 12 16  1  0  0  0  0
 13 15  2  0  0  0  0
 13 17  1  0  0  0  0
 14 18  1  0  0  0  0
 15 19  1  0  0  0  0
 16 20  1  0  0  0  0
 16 24  2  0  0  0  0
 17 21  1  0  0  0  0
 17 25  2  0  0  0  0
 18 22  2  0  0  0  0
 18 26  1  0  0  0  0
 19 23  2  0  0  0  0
 19 27  1  0  0  0  0
 20 22  1  0  0  0  0
 20 28  2  0  0  0  0
 21 23  1  0  0  0  0
 21 29  2  0  0  0  0
 22 46  1  0  0  0  0
 23 47  1  0  0  0  0
 24 30  1  0  0  0  0
 24 48  1  0  0  0  0
 25 31  1  0  0  0  0
 25 49  1  0  0  0  0
 26 34  2  0  0  0  0
 26 36  1  0  0  0  0
 27 35  2  0  0  0  0
 27 37  1  0  0  0  0
 28 32  1  0  0  0  0
 28 50  1  0  0  0  0
 29 33  1  0  0  0  0
 29 51  1  0  0  0  0
 30 32  2  0  0  0  0
 30 52  1  0  0  0  0
 31 33  2  0  0  0  0
 31 53  1  0  0  0  0
 32 54  1  0  0  0  0
 33 55  1  0  0  0  0
 34 38  1  0  0  0  0
 35 39  1  0  0  0  0
 36 40  2  0  0  0  0
 37 41  2  0  0  0  0
 38 42  2  0  0  0  0
 38 57  1  0  0  0  0
 39 43  2  0  0  0  0
 39 58  1  0  0  0  0
 40 42  1  0  0  0  0
 40 59  1  0  0  0  0
 41 43  1  0  0  0  0
 41 60  1  0  0  0  0
 44 61  1  0  0  0  0
 44 62  1  0  0  0  0
 44 63  1  0  0  0  0
 45 64  1  0  0  0  0
 45 65  1  0  0  0  0
 45 66  1  0  0  0  0
M  END
> <PUBCHEM_COMPOUND_CID>
154996139

> <PUBCHEM_COMPOUND_CANONICALIZED>
1

> <PUBCHEM_CACTVS_COMPLEXITY>
985

> <PUBCHEM_CACTVS_HBOND_ACCEPTOR>
10

> <PUBCHEM_CACTVS_HBOND_DONOR>
1

> <PUBCHEM_CACTVS_ROTATABLE_BOND>
4

> <PUBCHEM_CACTVS_SUBSKEYS>
AAADceB8OcIAAAAAAAAAAAAAAAAAAAAAAAAwYMGDBIAAAADBVAAAGwAACCAADASAmAoyBsAABRCAQiBCAIACCAAgIAAIiAAGCIgMJiKEMRqAMCAkwBEIqAfAwPAO4AADAAAYAADAAAYAADAAAAAAAAAAAA==

> <PUBCHEM_IUPAC_OPENEYE_NAME>
10,16-bis(2,6-difluoro-4-methoxy-phenyl)-13-hydroxy-12,14-dioxa-13lambda5-phosphapentacyclo[13.8.0.02,11.03,8.018,23]tricosa-1(15),2(11),3,5,7,9,16,18,20,22-decaene 13-oxide

> <PUBCHEM_IUPAC_CAS_NAME>
10,16-bis(2,6-difluoro-4-methoxyphenyl)-13-hydroxy-12,14-dioxa-13lambda5-phosphapentacyclo[13.8.0.02,11.03,8.018,23]tricosa-1(15),2(11),3,5,7,9,16,18,20,22-decaene 13-oxide

> <PUBCHEM_IUPAC_NAME_MARKUP>
10,16-bis(2,6-difluoro-4-methoxyphenyl)-13-hydroxy-12,14-dioxa-13&lambda;<SUP>5</SUP>-phosphapentacyclo[13.8.0.0<SUP>2,11</SUP>.0<SUP>3,8</SUP>.0<SUP>18,23</SUP>]tricosa-1(15),2(11),3,5,7,9,16,18,20,22-decaene 13-oxide

> <PUBCHEM_IUPAC_NAME>
10,16-bis(2,6-difluoro-4-methoxyphenyl)-13-hydroxy-12,14-dioxa-13lambda5-phosphapentacyclo[13.8.0.02,11.03,8.018,23]tricosa-1(15),2(11),3,5,7,9,16,18,20,22-decaene 13-oxide

> <PUBCHEM_IUPAC_SYSTEMATIC_NAME>
10,16-bis[2,6-bis(fluoranyl)-4-methoxy-phenyl]-13-oxidanyl-12,14-dioxa-13lambda5-phosphapentacyclo[13.8.0.02,11.03,8.018,23]tricosa-1(15),2(11),3,5,7,9,16,18,20,22-decaene 13-oxide

> <PUBCHEM_IUPAC_TRADITIONAL_NAME>
10,16-bis(2,6-difluoro-4-methoxy-phenyl)-13-hydroxy-12,14-dioxa-13lambda5-phosphapentacyclo[13.8.0.02,11.03,8.018,23]tricosa-1(15),2(11),3,5,7,9,16,18,20,22-decaene 13-oxide

> <PUBCHEM_IUPAC_INCHI>
InChI=1S/C34H21F4O6P/c1-41-19-13-25(35)29(26(36)14-19)23-11-17-7-3-5-9-21(17)31-32-22-10-6-4-8-18(22)12-24(34(32)44-45(39,40)43-33(23)31)30-27(37)15-20(42-2)16-28(30)38/h3-16H,1-2H3,(H,39,40)

> <PUBCHEM_IUPAC_INCHIKEY>
XHJYZPPFLGULEC-UHFFFAOYSA-N

> <PUBCHEM_XLOGP3_AA>
8.4

> <PUBCHEM_EXACT_MASS>
632.101188

> <PUBCHEM_MOLECULAR_FORMULA>
C34H21F4O6P

> <PUBCHEM_MOLECULAR_WEIGHT>
632.5

> <PUBCHEM_OPENEYE_CAN_SMILES>
COC1=CC(=C(C(=C1)F)C2=CC3=CC=CC=C3C4=C2OP(=O)(OC5=C4C6=CC=CC=C6C=C5C7=C(C=C(C=C7F)OC)F)O)F

> <PUBCHEM_OPENEYE_ISO_SMILES>
COC1=CC(=C(C(=C1)F)C2=CC3=CC=CC=C3C4=C2OP(=O)(OC5=C4C6=CC=CC=C6C=C5C7=C(C=C(C=C7F)OC)F)O)F

> <PUBCHEM_CACTVS_TPSA>
74.2

> <PUBCHEM_MONOISOTOPIC_WEIGHT>
632.101188

> <PUBCHEM_TOTAL_CHARGE>
0

> <PUBCHEM_HEAVY_ATOM_COUNT>
45

> <PUBCHEM_ATOM_DEF_STEREO_COUNT>
0

> <PUBCHEM_ATOM_UDEF_STEREO_COUNT>
0

> <PUBCHEM_BOND_DEF_STEREO_COUNT>
0

> <PUBCHEM_BOND_UDEF_STEREO_COUNT>
0

> <PUBCHEM_ISOTOPIC_ATOM_COUNT>
0

> <PUBCHEM_COMPONENT_COUNT>
1

> <PUBCHEM_CACTVS_TAUTO_COUNT>
-1

> <PUBCHEM_COORDINATE_TYPE>
1
5
255

> <PUBCHEM_BONDANNOTATIONS>
12  14  8
12  16  8
13  15  8
13  17  8
14  18  8
15  19  8
16  20  8
16  24  8
17  21  8
17  25  8
18  22  8
19  23  8
20  22  8
20  28  8
21  23  8
21  29  8
24  30  8
25  31  8
26  34  8
26  36  8
27  35  8
27  37  8
28  32  8
29  33  8
30  32  8
31  33  8
34  38  8
35  39  8
36  40  8
37  41  8
38  42  8
39  43  8
40  42  8
41  43  8

$$$$
