154996160
  -OEChem-04292123342D

 90 96  0     0  0  0  0  0  0999 V2000
    7.1519    0.3946    0.0000 P   0  0  0  0  0  0  0  0  0  0  0  0
    7.7754   -0.3873    0.0000 O   0  0  0  0  0  0  0  0  0  0  0  0
    6.1519    0.3946    0.0000 O   0  0  0  0  0  0  0  0  0  0  0  0
    7.1519    1.3946    0.0000 O   0  0  0  0  0  0  0  0  0  0  0  0
   12.0060   -0.1585    0.0000 O   0  0  0  0  0  0  0  0  0  0  0  0
    3.6930    3.8448    0.0000 O   0  0  0  0  0  0  0  0  0  0  0  0
    7.9337    1.0181    0.0000 O   0  0  0  0  0  0  0  0  0  0  0  0
    6.6519   -1.7961    0.0000 C   0  0  0  0  0  0  0  0  0  0  0  0
    5.7509   -1.3622    0.0000 C   0  0  0  0  0  0  0  0  0  0  0  0
    7.5529   -1.3622    0.0000 C   0  0  0  0  0  0  0  0  0  0  0  0
    5.5284   -0.3873    0.0000 C   0  0  0  0  0  0  0  0  0  0  0  0
    6.5580   -2.8335    0.0000 C   0  0  0  0  0  0  0  0  0  0  0  0
    4.9984   -2.0824    0.0000 C   0  0  0  0  0  0  0  0  0  0  0  0
    8.4224   -1.9356    0.0000 C   0  0  0  0  0  0  0  0  0  0  0  0
    4.5379   -0.0649    0.0000 C   0  0  0  0  0  0  0  0  0  0  0  0
    7.4141   -3.4269    0.0000 C   0  0  0  0  0  0  0  0  0  0  0  0
    4.0007   -1.7830    0.0000 C   0  0  0  0  0  0  0  0  0  0  0  0
    8.3526   -2.9749    0.0000 C   0  0  0  0  0  0  0  0  0  0  0  0
    3.7689   -0.7675    0.0000 C   0  0  0  0  0  0  0  0  0  0  0  0
    9.3183   -1.4914    0.0000 C   0  0  0  0  0  0  0  0  0  0  0  0
    4.3267    0.9125    0.0000 C   0  0  0  0  0  0  0  0  0  0  0  0
    5.9263   -3.7156    0.0000 C   0  0  0  0  0  0  0  0  0  0  0  0
    5.2642   -3.1343    0.0000 C   0  0  0  0  0  0  0  0  0  0  0  0
    7.8924   -4.4008    0.0000 C   0  0  0  0  0  0  0  0  0  0  0  0
    3.1996   -2.5149    0.0000 C   0  0  0  0  0  0  0  0  0  0  0  0
    9.3815   -0.4934    0.0000 C   0  0  0  0  0  0  0  0  0  0  0  0
    5.0675    1.5842    0.0000 C   0  0  0  0  0  0  0  0  0  0  0  0
   10.1510   -2.0451    0.0000 C   0  0  0  0  0  0  0  0  0  0  0  0
    3.3746    1.2183    0.0000 C   0  0  0  0  0  0  0  0  0  0  0  0
   10.2774   -0.0491    0.0000 C   0  0  0  0  0  0  0  0  0  0  0  0
    4.8563    2.5616    0.0000 C   0  0  0  0  0  0  0  0  0  0  0  0
   11.0469   -1.6008    0.0000 C   0  0  0  0  0  0  0  0  0  0  0  0
    3.1633    2.1957    0.0000 C   0  0  0  0  0  0  0  0  0  0  0  0
    6.3212   -4.8694    0.0000 C   0  0  0  0  0  0  0  0  0  0  0  0
    4.4803   -3.8845    0.0000 C   0  0  0  0  0  0  0  0  0  0  0  0
   11.1101   -0.6028    0.0000 C   0  0  0  0  0  0  0  0  0  0  0  0
    3.9042    2.8674    0.0000 C   0  0  0  0  0  0  0  0  0  0  0  0
    7.3419   -5.1280    0.0000 C   0  0  0  0  0  0  0  0  0  0  0  0
    3.4411   -3.5726    0.0000 C   0  0  0  0  0  0  0  0  0  0  0  0
   10.3406    0.9489    0.0000 C   0  0  0  0  0  0  0  0  0  0  0  0
    5.5972    3.2332    0.0000 C   0  0  0  0  0  0  0  0  0  0  0  0
   11.8796   -2.1545    0.0000 C   0  0  0  0  0  0  0  0  0  0  0  0
    2.2112    2.5015    0.0000 C   0  0  0  0  0  0  0  0  0  0  0  0
   12.8387   -0.7123    0.0000 C   0  0  0  0  0  0  0  0  0  0  0  0
    2.7409    4.1506    0.0000 C   0  0  0  0  0  0  0  0  0  0  0  0
   13.7346   -0.2680    0.0000 C   0  0  0  0  0  0  0  0  0  0  0  0
   12.7755   -1.7103    0.0000 C   0  0  0  0  0  0  0  0  0  0  0  0
    2.5296    5.1280    0.0000 C   0  0  0  0  0  0  0  0  0  0  0  0
    2.0000    3.4790    0.0000 C   0  0  0  0  0  0  0  0  0  0  0  0
    8.8662   -3.3222    0.0000 H   0  0  0  0  0  0  0  0  0  0  0  0
    3.1771   -0.5825    0.0000 H   0  0  0  0  0  0  0  0  0  0  0  0
    5.3129   -3.6254    0.0000 H   0  0  0  0  0  0  0  0  0  0  0  0
    5.8601   -3.3056    0.0000 H   0  0  0  0  0  0  0  0  0  0  0  0
    8.5096   -4.4600    0.0000 H   0  0  0  0  0  0  0  0  0  0  0  0
    2.6079   -2.3298    0.0000 H   0  0  0  0  0  0  0  0  0  0  0  0
    8.8652   -0.1500    0.0000 H   0  0  0  0  0  0  0  0  0  0  0  0
    5.6578    1.3946    0.0000 H   0  0  0  0  0  0  0  0  0  0  0  0
   10.1118   -2.6638    0.0000 H   0  0  0  0  0  0  0  0  0  0  0  0
    2.9152    0.8019    0.0000 H   0  0  0  0  0  0  0  0  0  0  0  0
    5.9011   -5.3254    0.0000 H   0  0  0  0  0  0  0  0  0  0  0  0
    4.6253   -4.4873    0.0000 H   0  0  0  0  0  0  0  0  0  0  0  0
    7.5471   -5.7131    0.0000 H   0  0  0  0  0  0  0  0  0  0  0  0
    2.9882   -3.9961    0.0000 H   0  0  0  0  0  0  0  0  0  0  0  0
   10.9594    0.9097    0.0000 H   0  0  0  0  0  0  0  0  0  0  0  0
   10.3798    1.5677    0.0000 H   0  0  0  0  0  0  0  0  0  0  0  0
    9.7218    0.9881    0.0000 H   0  0  0  0  0  0  0  0  0  0  0  0
    6.0136    2.7739    0.0000 H   0  0  0  0  0  0  0  0  0  0  0  0
    6.0565    3.6497    0.0000 H   0  0  0  0  0  0  0  0  0  0  0  0
    5.1808    3.6926    0.0000 H   0  0  0  0  0  0  0  0  0  0  0  0
   11.5363   -2.6708    0.0000 H   0  0  0  0  0  0  0  0  0  0  0  0
   12.3959   -2.4978    0.0000 H   0  0  0  0  0  0  0  0  0  0  0  0
   12.2229   -1.6383    0.0000 H   0  0  0  0  0  0  0  0  0  0  0  0
    2.4008    3.0918    0.0000 H   0  0  0  0  0  0  0  0  0  0  0  0
    1.6209    2.6911    0.0000 H   0  0  0  0  0  0  0  0  0  0  0  0
    2.0216    1.9112    0.0000 H   0  0  0  0  0  0  0  0  0  0  0  0
    7.6888    1.7046    0.0000 H   0  0  0  0  0  0  0  0  0  0  0  0
   12.2833   -0.9877    0.0000 H   0  0  0  0  0  0  0  0  0  0  0  0
    2.8718    3.5446    0.0000 H   0  0  0  0  0  0  0  0  0  0  0  0
   14.0100   -0.8234    0.0000 H   0  0  0  0  0  0  0  0  0  0  0  0
   14.2900    0.0075    0.0000 H   0  0  0  0  0  0  0  0  0  0  0  0
   13.4591    0.2875    0.0000 H   0  0  0  0  0  0  0  0  0  0  0  0
   12.1567   -1.6711    0.0000 H   0  0  0  0  0  0  0  0  0  0  0  0
   12.7363   -2.3290    0.0000 H   0  0  0  0  0  0  0  0  0  0  0  0
   13.3943   -1.7494    0.0000 H   0  0  0  0  0  0  0  0  0  0  0  0
    3.1356    5.2590    0.0000 H   0  0  0  0  0  0  0  0  0  0  0  0
    2.3987    5.7340    0.0000 H   0  0  0  0  0  0  0  0  0  0  0  0
    1.9236    4.9971    0.0000 H   0  0  0  0  0  0  0  0  0  0  0  0
    1.5836    3.9383    0.0000 H   0  0  0  0  0  0  0  0  0  0  0  0
    1.5407    3.0625    0.0000 H   0  0  0  0  0  0  0  0  0  0  0  0
    2.4164    3.0196    0.0000 H   0  0  0  0  0  0  0  0  0  0  0  0
  1  2  1  0  0  0  0
  1  3  1  0  0  0  0
  1  4  1  0  0  0  0
  1  7  2  0  0  0  0
  2 10  1  0  0  0  0
  3 11  1  0  0  0  0
  4 76  1  0  0  0  0
  5 36  1  0  0  0  0
  5 44  1  0  0  0  0
  6 37  1  0  0  0  0
  6 45  1  0  0  0  0
  8  9  1  0  0  0  0
  8 10  2  0  0  0  0
  8 12  1  0  0  0  0
  9 11  2  0  0  0  0
  9 13  1  0  0  0  0
 10 14  1  0  0  0  0
 11 15  1  0  0  0  0
 12 16  1  0  0  0  0
 12 22  2  0  0  0  0
 13 17  1  0  0  0  0
 13 23  2  0  0  0  0
 14 18  2  0  0  0  0
 14 20  1  0  0  0  0
 15 19  2  0  0  0  0
 15 21  1  0  0  0  0
 16 18  1  0  0  0  0
 16 24  2  0  0  0  0
 17 19  1  0  0  0  0
 17 25  2  0  0  0  0
 18 50  1  0  0  0  0
 19 51  1  0  0  0  0
 20 26  2  0  0  0  0
 20 28  1  0  0  0  0
 21 27  2  0  0  0  0
 21 29  1  0  0  0  0
 22 34  1  0  0  0  0
 22 52  1  0  0  0  0
 23 35  1  0  0  0  0
 23 53  1  0  0  0  0
 24 38  1  0  0  0  0
 24 54  1  0  0  0  0
 25 39  1  0  0  0  0
 25 55  1  0  0  0  0
 26 30  1  0  0  0  0
 26 56  1  0  0  0  0
 27 31  1  0  0  0  0
 27 57  1  0  0  0  0
 28 32  2  0  0  0  0
 28 58  1  0  0  0  0
 29 33  2  0  0  0  0
 29 59  1  0  0  0  0
 30 36  2  0  0  0  0
 30 40  1  0  0  0  0
 31 37  2  0  0  0  0
 31 41  1  0  0  0  0
 32 36  1  0  0  0  0
 32 42  1  0  0  0  0
 33 37  1  0  0  0  0
 33 43  1  0  0  0  0
 34 38  2  0  0  0  0
 34 60  1  0  0  0  0
 35 39  2  0  0  0  0
 35 61  1  0  0  0  0
 38 62  1  0  0  0  0
 39 63  1  0  0  0  0
 40 64  1  0  0  0  0
 40 65  1  0  0  0  0
 40 66  1  0  0  0  0
 41 67  1  0  0  0  0
 41 68  1  0  0  0  0
 41 69  1  0  0  0  0
 42 70  1  0  0  0  0
 42 71  1  0  0  0  0
 42 72  1  0  0  0  0
 43 73  1  0  0  0  0
 43 74  1  0  0  0  0
 43 75  1  0  0  0  0
 44 46  1  0  0  0  0
 44 47  1  0  0  0  0
 44 77  1  0  0  0  0
 45 48  1  0  0  0  0
 45 49  1  0  0  0  0
 45 78  1  0  0  0  0
 46 79  1  0  0  0  0
 46 80  1  0  0  0  0
 46 81  1  0  0  0  0
 47 82  1  0  0  0  0
 47 83  1  0  0  0  0
 47 84  1  0  0  0  0
 48 85  1  0  0  0  0
 48 86  1  0  0  0  0
 48 87  1  0  0  0  0
 49 88  1  0  0  0  0
 49 89  1  0  0  0  0
 49 90  1  0  0  0  0
M  END
> <PUBCHEM_COMPOUND_CID>
154996160

> <PUBCHEM_COMPOUND_CANONICALIZED>
1

> <PUBCHEM_CACTVS_COMPLEXITY>
1050

> <PUBCHEM_CACTVS_HBOND_ACCEPTOR>
6

> <PUBCHEM_CACTVS_HBOND_DONOR>
1

> <PUBCHEM_CACTVS_ROTATABLE_BOND>
6

> <PUBCHEM_CACTVS_SUBSKEYS>
AAADcfB8OAIAAAAAAAAAAAAAAAAAAAAAAAAwYMGDBIAAAADBVAAAGgAACCAADBSgmAIyBsAABRCAQiBCAIACCAAgIAAIiAAECIgMJiKEMRqCOCCkwBEIqAfAwPAO4AADAAAYAADAAAYAADAAAAAAAAAAAA==

> <PUBCHEM_IUPAC_OPENEYE_NAME>
13-hydroxy-10,16-bis(4-isopropoxy-3,5-dimethyl-phenyl)-12,14-dioxa-13lambda5-phosphapentacyclo[13.8.0.02,11.03,8.018,23]tricosa-1(15),2(11),3,5,7,9,16,18,20,22-decaene 13-oxide

> <PUBCHEM_IUPAC_CAS_NAME>
10,16-bis(3,5-dimethyl-4-propan-2-yloxyphenyl)-13-hydroxy-12,14-dioxa-13lambda5-phosphapentacyclo[13.8.0.02,11.03,8.018,23]tricosa-1(15),2(11),3,5,7,9,16,18,20,22-decaene 13-oxide

> <PUBCHEM_IUPAC_NAME_MARKUP>
10,16-bis(3,5-dimethyl-4-propan-2-yloxyphenyl)-13-hydroxy-12,14-dioxa-13&lambda;<SUP>5</SUP>-phosphapentacyclo[13.8.0.0<SUP>2,11</SUP>.0<SUP>3,8</SUP>.0<SUP>18,23</SUP>]tricosa-1(15),2(11),3,5,7,9,16,18,20,22-decaene 13-oxide

> <PUBCHEM_IUPAC_NAME>
10,16-bis(3,5-dimethyl-4-propan-2-yloxyphenyl)-13-hydroxy-12,14-dioxa-13lambda5-phosphapentacyclo[13.8.0.02,11.03,8.018,23]tricosa-1(15),2(11),3,5,7,9,16,18,20,22-decaene 13-oxide

> <PUBCHEM_IUPAC_SYSTEMATIC_NAME>
10,16-bis(3,5-dimethyl-4-propan-2-yloxy-phenyl)-13-oxidanyl-12,14-dioxa-13lambda5-phosphapentacyclo[13.8.0.02,11.03,8.018,23]tricosa-1(15),2(11),3,5,7,9,16,18,20,22-decaene 13-oxide

> <PUBCHEM_IUPAC_TRADITIONAL_NAME>
13-hydroxy-10,16-bis(4-isopropoxy-3,5-dimethyl-phenyl)-12,14-dioxa-13lambda5-phosphapentacyclo[13.8.0.02,11.03,8.018,23]tricosa-1(15),2(11),3,5,7,9,16,18,20,22-decaene 13-oxide

> <PUBCHEM_IUPAC_INCHI>
InChI=1S/C42H41O6P/c1-23(2)45-39-25(5)17-31(18-26(39)6)35-21-29-13-9-11-15-33(29)37-38-34-16-12-10-14-30(34)22-36(42(38)48-49(43,44)47-41(35)37)32-19-27(7)40(28(8)20-32)46-24(3)4/h9-24H,1-8H3,(H,43,44)

> <PUBCHEM_IUPAC_INCHIKEY>
NWXVXVGVNKWZHD-UHFFFAOYSA-N

> <PUBCHEM_XLOGP3_AA>
11.1

> <PUBCHEM_EXACT_MASS>
672.264076

> <PUBCHEM_MOLECULAR_FORMULA>
C42H41O6P

> <PUBCHEM_MOLECULAR_WEIGHT>
672.7

> <PUBCHEM_OPENEYE_CAN_SMILES>
CC1=CC(=CC(=C1OC(C)C)C)C2=CC3=CC=CC=C3C4=C2OP(=O)(OC5=C4C6=CC=CC=C6C=C5C7=CC(=C(C(=C7)C)OC(C)C)C)O

> <PUBCHEM_OPENEYE_ISO_SMILES>
CC1=CC(=CC(=C1OC(C)C)C)C2=CC3=CC=CC=C3C4=C2OP(=O)(OC5=C4C6=CC=CC=C6C=C5C7=CC(=C(C(=C7)C)OC(C)C)C)O

> <PUBCHEM_CACTVS_TPSA>
74.2

> <PUBCHEM_MONOISOTOPIC_WEIGHT>
672.264076

> <PUBCHEM_TOTAL_CHARGE>
0

> <PUBCHEM_HEAVY_ATOM_COUNT>
49

> <PUBCHEM_ATOM_DEF_STEREO_COUNT>
0

> <PUBCHEM_ATOM_UDEF_STEREO_COUNT>
0

> <PUBCHEM_BOND_DEF_STEREO_COUNT>
0

> <PUBCHEM_BOND_UDEF_STEREO_COUNT>
0

> <PUBCHEM_ISOTOPIC_ATOM_COUNT>
0

> <PUBCHEM_COMPONENT_COUNT>
1

> <PUBCHEM_CACTVS_TAUTO_COUNT>
-1

> <PUBCHEM_COORDINATE_TYPE>
1
5
255

> <PUBCHEM_BONDANNOTATIONS>
10  14  8
11  15  8
12  16  8
12  22  8
13  17  8
13  23  8
14  18  8
15  19  8
16  18  8
16  24  8
17  19  8
17  25  8
20  26  8
20  28  8
21  27  8
21  29  8
22  34  8
23  35  8
24  38  8
25  39  8
26  30  8
27  31  8
28  32  8
29  33  8
30  36  8
31  37  8
32  36  8
33  37  8
34  38  8
35  39  8
8  10  8
8  12  8
9  11  8
9  13  8

$$$$
