154996164
  -OEChem-04292123272D

 84 90  0     0  0  0  0  0  0999 V2000
    8.9520    0.9628    0.0000 P   0  0  0  0  0  0  0  0  0  0  0  0
   12.5943   -5.0246    0.0000 F   0  0  0  0  0  0  0  0  0  0  0  0
   13.6555   -4.0898    0.0000 F   0  0  0  0  0  0  0  0  0  0  0  0
   11.6595   -3.9634    0.0000 F   0  0  0  0  0  0  0  0  0  0  0  0
    2.0000    0.0773    0.0000 F   0  0  0  0  0  0  0  0  0  0  0  0
    2.0692    1.4899    0.0000 F   0  0  0  0  0  0  0  0  0  0  0  0
    3.4125    0.0081    0.0000 F   0  0  0  0  0  0  0  0  0  0  0  0
   15.4715   -0.6978    0.0000 F   0  0  0  0  0  0  0  0  0  0  0  0
   15.0199   -2.0379    0.0000 F   0  0  0  0  0  0  0  0  0  0  0  0
   14.1314   -0.2462    0.0000 F   0  0  0  0  0  0  0  0  0  0  0  0
    3.5889    5.0246    0.0000 F   0  0  0  0  0  0  0  0  0  0  0  0
    2.8227    3.8359    0.0000 F   0  0  0  0  0  0  0  0  0  0  0  0
    4.7776    4.2584    0.0000 F   0  0  0  0  0  0  0  0  0  0  0  0
    9.5755    0.1810    0.0000 O   0  0  0  0  0  0  0  0  0  0  0  0
    7.9520    0.9628    0.0000 O   0  0  0  0  0  0  0  0  0  0  0  0
    9.7339    1.5863    0.0000 O   0  0  0  0  0  0  0  0  0  0  0  0
    8.9520    1.9628    0.0000 O   0  0  0  0  0  0  0  0  0  0  0  0
    8.3582   -2.2653    0.0000 C   0  0  0  0  0  0  0  0  0  0  0  0
    6.7985   -1.5142    0.0000 C   0  0  0  0  0  0  0  0  0  0  0  0
    8.4520   -1.2279    0.0000 C   0  0  0  0  0  0  0  0  0  0  0  0
    7.5511   -0.7940    0.0000 C   0  0  0  0  0  0  0  0  0  0  0  0
    9.2143   -2.8586    0.0000 C   0  0  0  0  0  0  0  0  0  0  0  0
    5.8008   -1.2148    0.0000 C   0  0  0  0  0  0  0  0  0  0  0  0
    7.3700   -2.7133    0.0000 C   0  0  0  0  0  0  0  0  0  0  0  0
    6.5028   -2.5581    0.0000 C   0  0  0  0  0  0  0  0  0  0  0  0
    9.1415   -3.9412    0.0000 C   0  0  0  0  0  0  0  0  0  0  0  0
    4.7412   -1.4481    0.0000 C   0  0  0  0  0  0  0  0  0  0  0  0
    7.2723   -3.7939    0.0000 C   0  0  0  0  0  0  0  0  0  0  0  0
    5.3544   -2.9687    0.0000 C   0  0  0  0  0  0  0  0  0  0  0  0
    8.1640   -4.4120    0.0000 C   0  0  0  0  0  0  0  0  0  0  0  0
    4.5158   -2.3320    0.0000 C   0  0  0  0  0  0  0  0  0  0  0  0
    9.3530   -0.7940    0.0000 C   0  0  0  0  0  0  0  0  0  0  0  0
    7.3285    0.1810    0.0000 C   0  0  0  0  0  0  0  0  0  0  0  0
   10.2226   -1.3674    0.0000 C   0  0  0  0  0  0  0  0  0  0  0  0
    6.3380    0.5033    0.0000 C   0  0  0  0  0  0  0  0  0  0  0  0
   10.1527   -2.4067    0.0000 C   0  0  0  0  0  0  0  0  0  0  0  0
    5.5690   -0.1993    0.0000 C   0  0  0  0  0  0  0  0  0  0  0  0
   11.1185   -0.9231    0.0000 C   0  0  0  0  0  0  0  0  0  0  0  0
    6.1268    1.4807    0.0000 C   0  0  0  0  0  0  0  0  0  0  0  0
   11.9512   -1.4769    0.0000 C   0  0  0  0  0  0  0  0  0  0  0  0
    5.1747    1.7865    0.0000 C   0  0  0  0  0  0  0  0  0  0  0  0
   12.8471   -1.0326    0.0000 C   0  0  0  0  0  0  0  0  0  0  0  0
    4.9635    2.7639    0.0000 C   0  0  0  0  0  0  0  0  0  0  0  0
   11.8880   -2.4749    0.0000 C   0  0  0  0  0  0  0  0  0  0  0  0
    4.4338    1.1149    0.0000 C   0  0  0  0  0  0  0  0  0  0  0  0
   13.6798   -1.5863    0.0000 C   0  0  0  0  0  0  0  0  0  0  0  0
    4.0114    3.0697    0.0000 C   0  0  0  0  0  0  0  0  0  0  0  0
   12.7207   -3.0286    0.0000 C   0  0  0  0  0  0  0  0  0  0  0  0
    3.4817    1.4206    0.0000 C   0  0  0  0  0  0  0  0  0  0  0  0
   13.6166   -2.5843    0.0000 C   0  0  0  0  0  0  0  0  0  0  0  0
    3.2705    2.3981    0.0000 C   0  0  0  0  0  0  0  0  0  0  0  0
   12.6575   -4.0266    0.0000 C   0  0  0  0  0  0  0  0  0  0  0  0
    2.7409    0.7490    0.0000 C   0  0  0  0  0  0  0  0  0  0  0  0
   14.5756   -1.1420    0.0000 C   0  0  0  0  0  0  0  0  0  0  0  0
    3.8001    4.0472    0.0000 C   0  0  0  0  0  0  0  0  0  0  0  0
    7.2144   -2.1131    0.0000 H   0  0  0  0  0  0  0  0  0  0  0  0
    6.7521   -2.7639    0.0000 H   0  0  0  0  0  0  0  0  0  0  0  0
    6.5874   -3.1723    0.0000 H   0  0  0  0  0  0  0  0  0  0  0  0
    7.1213   -2.6012    0.0000 H   0  0  0  0  0  0  0  0  0  0  0  0
    9.3110   -4.5376    0.0000 H   0  0  0  0  0  0  0  0  0  0  0  0
    9.7581   -3.8763    0.0000 H   0  0  0  0  0  0  0  0  0  0  0  0
    4.7032   -0.8292    0.0000 H   0  0  0  0  0  0  0  0  0  0  0  0
    4.1239   -1.3898    0.0000 H   0  0  0  0  0  0  0  0  0  0  0  0
    6.6734   -3.6332    0.0000 H   0  0  0  0  0  0  0  0  0  0  0  0
    7.0115   -4.3564    0.0000 H   0  0  0  0  0  0  0  0  0  0  0  0
    4.8918   -3.3816    0.0000 H   0  0  0  0  0  0  0  0  0  0  0  0
    5.6710   -3.5017    0.0000 H   0  0  0  0  0  0  0  0  0  0  0  0
    7.7288   -4.8536    0.0000 H   0  0  0  0  0  0  0  0  0  0  0  0
    8.5246   -4.9163    0.0000 H   0  0  0  0  0  0  0  0  0  0  0  0
    3.9407   -2.1003    0.0000 H   0  0  0  0  0  0  0  0  0  0  0  0
    4.2098   -2.8712    0.0000 H   0  0  0  0  0  0  0  0  0  0  0  0
   10.6664   -2.7540    0.0000 H   0  0  0  0  0  0  0  0  0  0  0  0
    4.9773   -0.0143    0.0000 H   0  0  0  0  0  0  0  0  0  0  0  0
   11.5462   -0.4743    0.0000 H   0  0  0  0  0  0  0  0  0  0  0  0
   10.7508   -0.4240    0.0000 H   0  0  0  0  0  0  0  0  0  0  0  0
    6.7464    1.5045    0.0000 H   0  0  0  0  0  0  0  0  0  0  0  0
    6.2110    2.0950    0.0000 H   0  0  0  0  0  0  0  0  0  0  0  0
   12.8862   -0.4138    0.0000 H   0  0  0  0  0  0  0  0  0  0  0  0
    5.4228    3.1804    0.0000 H   0  0  0  0  0  0  0  0  0  0  0  0
   11.3325   -2.7503    0.0000 H   0  0  0  0  0  0  0  0  0  0  0  0
    4.5648    0.5088    0.0000 H   0  0  0  0  0  0  0  0  0  0  0  0
   10.3110    1.3598    0.0000 H   0  0  0  0  0  0  0  0  0  0  0  0
   14.1328   -2.9276    0.0000 H   0  0  0  0  0  0  0  0  0  0  0  0
    2.6802    2.5877    0.0000 H   0  0  0  0  0  0  0  0  0  0  0  0
  1 14  1  0  0  0  0
  1 15  1  0  0  0  0
  1 16  1  0  0  0  0
  1 17  2  0  0  0  0
  2 52  1  0  0  0  0
  3 52  1  0  0  0  0
  4 52  1  0  0  0  0
  5 53  1  0  0  0  0
  6 53  1  0  0  0  0
  7 53  1  0  0  0  0
  8 54  1  0  0  0  0
  9 54  1  0  0  0  0
 10 54  1  0  0  0  0
 11 55  1  0  0  0  0
 12 55  1  0  0  0  0
 13 55  1  0  0  0  0
 14 32  1  0  0  0  0
 15 33  1  0  0  0  0
 16 82  1  0  0  0  0
 18 20  2  0  0  0  0
 18 22  1  0  0  0  0
 18 24  1  0  0  0  0
 19 21  2  0  0  0  0
 19 23  1  0  0  0  0
 19 25  1  0  0  0  0
 20 21  1  0  0  0  0
 20 32  1  0  0  0  0
 21 33  1  0  0  0  0
 22 26  1  0  0  0  0
 22 36  2  0  0  0  0
 23 27  1  0  0  0  0
 23 37  2  0  0  0  0
 24 28  1  0  0  0  0
 24 56  1  0  0  0  0
 24 57  1  0  0  0  0
 25 29  1  0  0  0  0
 25 58  1  0  0  0  0
 25 59  1  0  0  0  0
 26 30  1  0  0  0  0
 26 60  1  0  0  0  0
 26 61  1  0  0  0  0
 27 31  1  0  0  0  0
 27 62  1  0  0  0  0
 27 63  1  0  0  0  0
 28 30  1  0  0  0  0
 28 64  1  0  0  0  0
 28 65  1  0  0  0  0
 29 31  1  0  0  0  0
 29 66  1  0  0  0  0
 29 67  1  0  0  0  0
 30 68  1  0  0  0  0
 30 69  1  0  0  0  0
 31 70  1  0  0  0  0
 31 71  1  0  0  0  0
 32 34  2  0  0  0  0
 33 35  2  0  0  0  0
 34 36  1  0  0  0  0
 34 38  1  0  0  0  0
 35 37  1  0  0  0  0
 35 39  1  0  0  0  0
 36 72  1  0  0  0  0
 37 73  1  0  0  0  0
 38 40  1  0  0  0  0
 38 74  1  0  0  0  0
 38 75  1  0  0  0  0
 39 41  1  0  0  0  0
 39 76  1  0  0  0  0
 39 77  1  0  0  0  0
 40 42  2  0  0  0  0
 40 44  1  0  0  0  0
 41 43  2  0  0  0  0
 41 45  1  0  0  0  0
 42 46  1  0  0  0  0
 42 78  1  0  0  0  0
 43 47  1  0  0  0  0
 43 79  1  0  0  0  0
 44 48  2  0  0  0  0
 44 80  1  0  0  0  0
 45 49  2  0  0  0  0
 45 81  1  0  0  0  0
 46 50  2  0  0  0  0
 46 54  1  0  0  0  0
 47 51  2  0  0  0  0
 47 55  1  0  0  0  0
 48 50  1  0  0  0  0
 48 52  1  0  0  0  0
 49 51  1  0  0  0  0
 49 53  1  0  0  0  0
 50 83  1  0  0  0  0
 51 84  1  0  0  0  0
M  END
> <PUBCHEM_COMPOUND_CID>
154996164

> <PUBCHEM_COMPOUND_CANONICALIZED>
1

> <PUBCHEM_CACTVS_COMPLEXITY>
1240

> <PUBCHEM_CACTVS_HBOND_ACCEPTOR>
16

> <PUBCHEM_CACTVS_HBOND_DONOR>
1

> <PUBCHEM_CACTVS_ROTATABLE_BOND>
4

> <PUBCHEM_CACTVS_SUBSKEYS>
AAADceB8OcIAAAAAAAAAAAAAAAAAAAAAAAAwYMGDBIAAAADBVAAAGwAACCAADASAmBAwBoAAARCAQiBCAIACAAAgIAAAiAAECIgIJiKAERKAMAAkwBEIiAfAwPAO4AADAAAYAADAAAYAADAAAAAAAAAAAA==

> <PUBCHEM_IUPAC_OPENEYE_NAME>
10,16-bis[[3,5-bis(trifluoromethyl)phenyl]methyl]-13-hydroxy-12,14-dioxa-13lambda5-phosphapentacyclo[13.8.0.02,11.03,8.018,23]tricosa-1(23),2,8,10,15,17-hexaene 13-oxide

> <PUBCHEM_IUPAC_CAS_NAME>
10,16-bis[[3,5-bis(trifluoromethyl)phenyl]methyl]-13-hydroxy-12,14-dioxa-13lambda5-phosphapentacyclo[13.8.0.02,11.03,8.018,23]tricosa-1(23),2,8,10,15,17-hexaene 13-oxide

> <PUBCHEM_IUPAC_NAME_MARKUP>
10,16-bis[[3,5-bis(trifluoromethyl)phenyl]methyl]-13-hydroxy-12,14-dioxa-13&lambda;<SUP>5</SUP>-phosphapentacyclo[13.8.0.0<SUP>2,11</SUP>.0<SUP>3,8</SUP>.0<SUP>18,23</SUP>]tricosa-1(23),2,8,10,15,17-hexaene 13-oxide

> <PUBCHEM_IUPAC_NAME>
10,16-bis[[3,5-bis(trifluoromethyl)phenyl]methyl]-13-hydroxy-12,14-dioxa-13lambda5-phosphapentacyclo[13.8.0.02,11.03,8.018,23]tricosa-1(23),2,8,10,15,17-hexaene 13-oxide

> <PUBCHEM_IUPAC_SYSTEMATIC_NAME>
10,16-bis[[3,5-bis(trifluoromethyl)phenyl]methyl]-13-oxidanyl-12,14-dioxa-13lambda5-phosphapentacyclo[13.8.0.02,11.03,8.018,23]tricosa-1(23),2,8,10,15,17-hexaene 13-oxide

> <PUBCHEM_IUPAC_TRADITIONAL_NAME>
10,16-bis[3,5-bis(trifluoromethyl)benzyl]-13-hydroxy-12,14-dioxa-13lambda5-phosphapentacyclo[13.8.0.02,11.03,8.018,23]tricosa-1(23),2,8,10,15,17-hexaene 13-oxide

> <PUBCHEM_IUPAC_INCHI>
InChI=1S/C38H29F12O4P/c39-35(40,41)25-11-19(12-26(17-25)36(42,43)44)9-23-15-21-5-1-3-7-29(21)31-32-30-8-4-2-6-22(30)16-24(34(32)54-55(51,52)53-33(23)31)10-20-13-27(37(45,46)47)18-28(14-20)38(48,49)50/h11-18H,1-10H2,(H,51,52)

> <PUBCHEM_IUPAC_INCHIKEY>
HEUXCPNDCKLXTC-UHFFFAOYSA-N

> <PUBCHEM_XLOGP3_AA>
12.5

> <PUBCHEM_EXACT_MASS>
808.161184

> <PUBCHEM_MOLECULAR_FORMULA>
C38H29F12O4P

> <PUBCHEM_MOLECULAR_WEIGHT>
808.6

> <PUBCHEM_OPENEYE_CAN_SMILES>
C1CCC2=C3C4=C5CCCCC5=CC(=C4OP(=O)(OC3=C(C=C2C1)CC6=CC(=CC(=C6)C(F)(F)F)C(F)(F)F)O)CC7=CC(=CC(=C7)C(F)(F)F)C(F)(F)F

> <PUBCHEM_OPENEYE_ISO_SMILES>
C1CCC2=C3C4=C5CCCCC5=CC(=C4OP(=O)(OC3=C(C=C2C1)CC6=CC(=CC(=C6)C(F)(F)F)C(F)(F)F)O)CC7=CC(=CC(=C7)C(F)(F)F)C(F)(F)F

> <PUBCHEM_CACTVS_TPSA>
55.8

> <PUBCHEM_MONOISOTOPIC_WEIGHT>
808.161184

> <PUBCHEM_TOTAL_CHARGE>
0

> <PUBCHEM_HEAVY_ATOM_COUNT>
55

> <PUBCHEM_ATOM_DEF_STEREO_COUNT>
0

> <PUBCHEM_ATOM_UDEF_STEREO_COUNT>
0

> <PUBCHEM_BOND_DEF_STEREO_COUNT>
0

> <PUBCHEM_BOND_UDEF_STEREO_COUNT>
0

> <PUBCHEM_ISOTOPIC_ATOM_COUNT>
0

> <PUBCHEM_COMPONENT_COUNT>
1

> <PUBCHEM_CACTVS_TAUTO_COUNT>
-1

> <PUBCHEM_COORDINATE_TYPE>
1
5
255

> <PUBCHEM_BONDANNOTATIONS>
18  20  8
18  22  8
19  21  8
19  23  8
20  32  8
21  33  8
22  36  8
23  37  8
32  34  8
33  35  8
34  36  8
35  37  8
40  42  8
40  44  8
41  43  8
41  45  8
42  46  8
43  47  8
44  48  8
45  49  8
46  50  8
47  51  8
48  50  8
49  51  8

$$$$
