154996206
  -OEChem-04302102152D

 76 82  0     0  0  0  0  0  0999 V2000
    9.5857    1.1545    0.0000 P   0  0  0  0  0  0  0  0  0  0  0  0
   13.6071    1.1551    0.0000 F   0  0  0  0  0  0  0  0  0  0  0  0
   14.5420    0.0939    0.0000 F   0  0  0  0  0  0  0  0  0  0  0  0
   12.5459    0.2203    0.0000 F   0  0  0  0  0  0  0  0  0  0  0  0
    7.0789    4.2989    0.0000 F   0  0  0  0  0  0  0  0  0  0  0  0
    5.6664    4.3681    0.0000 F   0  0  0  0  0  0  0  0  0  0  0  0
    7.0097    2.8864    0.0000 F   0  0  0  0  0  0  0  0  0  0  0  0
   15.9157   -3.5001    0.0000 F   0  0  0  0  0  0  0  0  0  0  0  0
   14.5292   -3.7791    0.0000 F   0  0  0  0  0  0  0  0  0  0  0  0
   15.6367   -2.1137    0.0000 F   0  0  0  0  0  0  0  0  0  0  0  0
    2.0000    3.2013    0.0000 F   0  0  0  0  0  0  0  0  0  0  0  0
    2.6463    1.9434    0.0000 F   0  0  0  0  0  0  0  0  0  0  0  0
    3.2579    3.8476    0.0000 F   0  0  0  0  0  0  0  0  0  0  0  0
   10.2092    0.3726    0.0000 O   0  0  0  0  0  0  0  0  0  0  0  0
    8.5857    1.1545    0.0000 O   0  0  0  0  0  0  0  0  0  0  0  0
    9.5857    2.1545    0.0000 O   0  0  0  0  0  0  0  0  0  0  0  0
   10.3676    1.7780    0.0000 O   0  0  0  0  0  0  0  0  0  0  0  0
    9.0857   -1.0362    0.0000 C   0  0  0  0  0  0  0  0  0  0  0  0
    8.1848   -0.6023    0.0000 C   0  0  0  0  0  0  0  0  0  0  0  0
    9.9867   -0.6023    0.0000 C   0  0  0  0  0  0  0  0  0  0  0  0
    7.9622    0.3726    0.0000 C   0  0  0  0  0  0  0  0  0  0  0  0
    8.9919   -2.0736    0.0000 C   0  0  0  0  0  0  0  0  0  0  0  0
    7.4322   -1.3225    0.0000 C   0  0  0  0  0  0  0  0  0  0  0  0
   10.8563   -1.1757    0.0000 C   0  0  0  0  0  0  0  0  0  0  0  0
    6.9717    0.6950    0.0000 C   0  0  0  0  0  0  0  0  0  0  0  0
    9.8480   -2.6670    0.0000 C   0  0  0  0  0  0  0  0  0  0  0  0
    6.4345   -1.0231    0.0000 C   0  0  0  0  0  0  0  0  0  0  0  0
   11.7522   -0.7315    0.0000 C   0  0  0  0  0  0  0  0  0  0  0  0
    6.7605    1.6724    0.0000 C   0  0  0  0  0  0  0  0  0  0  0  0
   10.7864   -2.2150    0.0000 C   0  0  0  0  0  0  0  0  0  0  0  0
    6.2027   -0.0076    0.0000 C   0  0  0  0  0  0  0  0  0  0  0  0
   12.5849   -1.2852    0.0000 C   0  0  0  0  0  0  0  0  0  0  0  0
    5.8084    1.9782    0.0000 C   0  0  0  0  0  0  0  0  0  0  0  0
    8.3601   -2.9557    0.0000 C   0  0  0  0  0  0  0  0  0  0  0  0
    7.6980   -2.3744    0.0000 C   0  0  0  0  0  0  0  0  0  0  0  0
   10.3263   -3.6409    0.0000 C   0  0  0  0  0  0  0  0  0  0  0  0
    5.6335   -1.7550    0.0000 C   0  0  0  0  0  0  0  0  0  0  0  0
   13.4808   -0.8409    0.0000 C   0  0  0  0  0  0  0  0  0  0  0  0
    5.5972    2.9556    0.0000 C   0  0  0  0  0  0  0  0  0  0  0  0
    8.7551   -4.1095    0.0000 C   0  0  0  0  0  0  0  0  0  0  0  0
    6.9142   -3.1246    0.0000 C   0  0  0  0  0  0  0  0  0  0  0  0
    9.7757   -4.3681    0.0000 C   0  0  0  0  0  0  0  0  0  0  0  0
    5.8749   -2.8128    0.0000 C   0  0  0  0  0  0  0  0  0  0  0  0
   12.5217   -2.2832    0.0000 C   0  0  0  0  0  0  0  0  0  0  0  0
    5.0675    1.3065    0.0000 C   0  0  0  0  0  0  0  0  0  0  0  0
   14.3135   -1.3946    0.0000 C   0  0  0  0  0  0  0  0  0  0  0  0
    4.6451    3.2614    0.0000 C   0  0  0  0  0  0  0  0  0  0  0  0
   14.2503   -2.3926    0.0000 C   0  0  0  0  0  0  0  0  0  0  0  0
    3.9042    2.5898    0.0000 C   0  0  0  0  0  0  0  0  0  0  0  0
   13.3544   -2.8369    0.0000 C   0  0  0  0  0  0  0  0  0  0  0  0
    4.1154    1.6123    0.0000 C   0  0  0  0  0  0  0  0  0  0  0  0
   13.5440    0.1571    0.0000 C   0  0  0  0  0  0  0  0  0  0  0  0
    6.3380    3.6273    0.0000 C   0  0  0  0  0  0  0  0  0  0  0  0
   15.0830   -2.9464    0.0000 C   0  0  0  0  0  0  0  0  0  0  0  0
    2.9521    2.8955    0.0000 C   0  0  0  0  0  0  0  0  0  0  0  0
   12.1799   -0.2826    0.0000 H   0  0  0  0  0  0  0  0  0  0  0  0
   11.3844   -0.2323    0.0000 H   0  0  0  0  0  0  0  0  0  0  0  0
    7.3800    1.6961    0.0000 H   0  0  0  0  0  0  0  0  0  0  0  0
    6.8447    2.2867    0.0000 H   0  0  0  0  0  0  0  0  0  0  0  0
   11.3001   -2.5623    0.0000 H   0  0  0  0  0  0  0  0  0  0  0  0
    5.6110    0.1774    0.0000 H   0  0  0  0  0  0  0  0  0  0  0  0
    7.7467   -2.8656    0.0000 H   0  0  0  0  0  0  0  0  0  0  0  0
    8.2939   -2.5457    0.0000 H   0  0  0  0  0  0  0  0  0  0  0  0
   10.9434   -3.7001    0.0000 H   0  0  0  0  0  0  0  0  0  0  0  0
    5.0417   -1.5699    0.0000 H   0  0  0  0  0  0  0  0  0  0  0  0
    8.3349   -4.5655    0.0000 H   0  0  0  0  0  0  0  0  0  0  0  0
    7.0591   -3.7274    0.0000 H   0  0  0  0  0  0  0  0  0  0  0  0
    9.9809   -4.9532    0.0000 H   0  0  0  0  0  0  0  0  0  0  0  0
    5.4221   -3.2362    0.0000 H   0  0  0  0  0  0  0  0  0  0  0  0
   11.9662   -2.5586    0.0000 H   0  0  0  0  0  0  0  0  0  0  0  0
    5.1985    0.7005    0.0000 H   0  0  0  0  0  0  0  0  0  0  0  0
   14.8689   -1.1192    0.0000 H   0  0  0  0  0  0  0  0  0  0  0  0
    4.5141    3.8674    0.0000 H   0  0  0  0  0  0  0  0  0  0  0  0
   13.3152   -3.4557    0.0000 H   0  0  0  0  0  0  0  0  0  0  0  0
    3.6561    1.1959    0.0000 H   0  0  0  0  0  0  0  0  0  0  0  0
    9.0488    2.4645    0.0000 H   0  0  0  0  0  0  0  0  0  0  0  0
  1 14  1  0  0  0  0
  1 15  1  0  0  0  0
  1 16  1  0  0  0  0
  1 17  2  0  0  0  0
  2 52  1  0  0  0  0
  3 52  1  0  0  0  0
  4 52  1  0  0  0  0
  5 53  1  0  0  0  0
  6 53  1  0  0  0  0
  7 53  1  0  0  0  0
  8 54  1  0  0  0  0
  9 54  1  0  0  0  0
 10 54  1  0  0  0  0
 11 55  1  0  0  0  0
 12 55  1  0  0  0  0
 13 55  1  0  0  0  0
 14 20  1  0  0  0  0
 15 21  1  0  0  0  0
 16 76  1  0  0  0  0
 18 19  1  0  0  0  0
 18 20  2  0  0  0  0
 18 22  1  0  0  0  0
 19 21  2  0  0  0  0
 19 23  1  0  0  0  0
 20 24  1  0  0  0  0
 21 25  1  0  0  0  0
 22 26  1  0  0  0  0
 22 34  2  0  0  0  0
 23 27  1  0  0  0  0
 23 35  2  0  0  0  0
 24 28  1  0  0  0  0
 24 30  2  0  0  0  0
 25 29  1  0  0  0  0
 25 31  2  0  0  0  0
 26 30  1  0  0  0  0
 26 36  2  0  0  0  0
 27 31  1  0  0  0  0
 27 37  2  0  0  0  0
 28 32  1  0  0  0  0
 28 56  1  0  0  0  0
 28 57  1  0  0  0  0
 29 33  1  0  0  0  0
 29 58  1  0  0  0  0
 29 59  1  0  0  0  0
 30 60  1  0  0  0  0
 31 61  1  0  0  0  0
 32 38  2  0  0  0  0
 32 44  1  0  0  0  0
 33 39  2  0  0  0  0
 33 45  1  0  0  0  0
 34 40  1  0  0  0  0
 34 62  1  0  0  0  0
 35 41  1  0  0  0  0
 35 63  1  0  0  0  0
 36 42  1  0  0  0  0
 36 64  1  0  0  0  0
 37 43  1  0  0  0  0
 37 65  1  0  0  0  0
 38 46  1  0  0  0  0
 38 52  1  0  0  0  0
 39 47  1  0  0  0  0
 39 53  1  0  0  0  0
 40 42  2  0  0  0  0
 40 66  1  0  0  0  0
 41 43  2  0  0  0  0
 41 67  1  0  0  0  0
 42 68  1  0  0  0  0
 43 69  1  0  0  0  0
 44 50  2  0  0  0  0
 44 70  1  0  0  0  0
 45 51  2  0  0  0  0
 45 71  1  0  0  0  0
 46 48  2  0  0  0  0
 46 72  1  0  0  0  0
 47 49  2  0  0  0  0
 47 73  1  0  0  0  0
 48 50  1  0  0  0  0
 48 54  1  0  0  0  0
 49 51  1  0  0  0  0
 49 55  1  0  0  0  0
 50 74  1  0  0  0  0
 51 75  1  0  0  0  0
M  END
> <PUBCHEM_COMPOUND_CID>
154996206

> <PUBCHEM_COMPOUND_CANONICALIZED>
1

> <PUBCHEM_CACTVS_COMPLEXITY>
1290

> <PUBCHEM_CACTVS_HBOND_ACCEPTOR>
16

> <PUBCHEM_CACTVS_HBOND_DONOR>
1

> <PUBCHEM_CACTVS_ROTATABLE_BOND>
4

> <PUBCHEM_CACTVS_SUBSKEYS>
AAADceB8OcIAAAAAAAAAAAAAAAAAAAAAAAAwYMGDBIAAAADBVAAAGwAACCAADASAmBAwBsAAARCAQiBCAIACAAAgIAAIiAAECIgIJiKAERKAMAAkwBEIiAfAwPAO4AADAAAYAADAAAYAADAAAAAAAAAAAA==

> <PUBCHEM_IUPAC_OPENEYE_NAME>
10,16-bis[[2,4-bis(trifluoromethyl)phenyl]methyl]-13-hydroxy-12,14-dioxa-13lambda5-phosphapentacyclo[13.8.0.02,11.03,8.018,23]tricosa-1(15),2(11),3,5,7,9,16,18,20,22-decaene 13-oxide

> <PUBCHEM_IUPAC_CAS_NAME>
10,16-bis[[2,4-bis(trifluoromethyl)phenyl]methyl]-13-hydroxy-12,14-dioxa-13lambda5-phosphapentacyclo[13.8.0.02,11.03,8.018,23]tricosa-1(15),2(11),3,5,7,9,16,18,20,22-decaene 13-oxide

> <PUBCHEM_IUPAC_NAME_MARKUP>
10,16-bis[[2,4-bis(trifluoromethyl)phenyl]methyl]-13-hydroxy-12,14-dioxa-13&lambda;<SUP>5</SUP>-phosphapentacyclo[13.8.0.0<SUP>2,11</SUP>.0<SUP>3,8</SUP>.0<SUP>18,23</SUP>]tricosa-1(15),2(11),3,5,7,9,16,18,20,22-decaene 13-oxide

> <PUBCHEM_IUPAC_NAME>
10,16-bis[[2,4-bis(trifluoromethyl)phenyl]methyl]-13-hydroxy-12,14-dioxa-13lambda5-phosphapentacyclo[13.8.0.02,11.03,8.018,23]tricosa-1(15),2(11),3,5,7,9,16,18,20,22-decaene 13-oxide

> <PUBCHEM_IUPAC_SYSTEMATIC_NAME>
10,16-bis[[2,4-bis(trifluoromethyl)phenyl]methyl]-13-oxidanyl-12,14-dioxa-13lambda5-phosphapentacyclo[13.8.0.02,11.03,8.018,23]tricosa-1(15),2(11),3,5,7,9,16,18,20,22-decaene 13-oxide

> <PUBCHEM_IUPAC_TRADITIONAL_NAME>
10,16-bis[2,4-bis(trifluoromethyl)benzyl]-13-hydroxy-12,14-dioxa-13lambda5-phosphapentacyclo[13.8.0.02,11.03,8.018,23]tricosa-1(15),2(11),3,5,7,9,16,18,20,22-decaene 13-oxide

> <PUBCHEM_IUPAC_INCHI>
InChI=1S/C38H21F12O4P/c39-35(40,41)25-11-9-21(29(17-25)37(45,46)47)15-23-13-19-5-1-3-7-27(19)31-32-28-8-4-2-6-20(28)14-24(34(32)54-55(51,52)53-33(23)31)16-22-10-12-26(36(42,43)44)18-30(22)38(48,49)50/h1-14,17-18H,15-16H2,(H,51,52)

> <PUBCHEM_IUPAC_INCHIKEY>
FOVYNXMIWIZRST-UHFFFAOYSA-N

> <PUBCHEM_XLOGP3_AA>
12.2

> <PUBCHEM_EXACT_MASS>
800.098584

> <PUBCHEM_MOLECULAR_FORMULA>
C38H21F12O4P

> <PUBCHEM_MOLECULAR_WEIGHT>
800.5

> <PUBCHEM_OPENEYE_CAN_SMILES>
C1=CC=C2C(=C1)C=C(C3=C2C4=C(C(=CC5=CC=CC=C54)CC6=C(C=C(C=C6)C(F)(F)F)C(F)(F)F)OP(=O)(O3)O)CC7=C(C=C(C=C7)C(F)(F)F)C(F)(F)F

> <PUBCHEM_OPENEYE_ISO_SMILES>
C1=CC=C2C(=C1)C=C(C3=C2C4=C(C(=CC5=CC=CC=C54)CC6=C(C=C(C=C6)C(F)(F)F)C(F)(F)F)OP(=O)(O3)O)CC7=C(C=C(C=C7)C(F)(F)F)C(F)(F)F

> <PUBCHEM_CACTVS_TPSA>
55.8

> <PUBCHEM_MONOISOTOPIC_WEIGHT>
800.098584

> <PUBCHEM_TOTAL_CHARGE>
0

> <PUBCHEM_HEAVY_ATOM_COUNT>
55

> <PUBCHEM_ATOM_DEF_STEREO_COUNT>
0

> <PUBCHEM_ATOM_UDEF_STEREO_COUNT>
0

> <PUBCHEM_BOND_DEF_STEREO_COUNT>
0

> <PUBCHEM_BOND_UDEF_STEREO_COUNT>
0

> <PUBCHEM_ISOTOPIC_ATOM_COUNT>
0

> <PUBCHEM_COMPONENT_COUNT>
1

> <PUBCHEM_CACTVS_TAUTO_COUNT>
-1

> <PUBCHEM_COORDINATE_TYPE>
1
5
255

> <PUBCHEM_BONDANNOTATIONS>
18  20  8
18  22  8
19  21  8
19  23  8
20  24  8
21  25  8
22  26  8
22  34  8
23  27  8
23  35  8
24  30  8
25  31  8
26  30  8
26  36  8
27  31  8
27  37  8
32  38  8
32  44  8
33  39  8
33  45  8
34  40  8
35  41  8
36  42  8
37  43  8
38  46  8
39  47  8
40  42  8
41  43  8
44  50  8
45  51  8
46  48  8
47  49  8
48  50  8
49  51  8

$$$$
