53234228
  -OEChem-04302102102D

 90 98  0     0  0  0  0  0  0999 V2000
    7.7575    1.0362    0.0000 P   0  0  0  0  0  0  0  0  0  0  0  0
    9.9240   -0.8497    0.0000 Si  0  0  0  0  0  0  0  0  0  0  0  0
    4.9323    1.5541    0.0000 Si  0  0  0  0  0  0  0  0  0  0  0  0
    8.3810    0.2543    0.0000 O   0  0  0  0  0  0  0  0  0  0  0  0
    6.7575    1.0362    0.0000 O   0  0  0  0  0  0  0  0  0  0  0  0
    7.7575    2.0362    0.0000 O   0  0  0  0  0  0  0  0  0  0  0  0
    8.5394    1.6597    0.0000 O   0  0  0  0  0  0  0  0  0  0  0  0
    9.0281   -1.2940    0.0000 C   0  0  0  0  0  0  0  0  0  0  0  0
    5.1435    0.5767    0.0000 C   0  0  0  0  0  0  0  0  0  0  0  0
    7.2575   -1.1545    0.0000 C   0  0  0  0  0  0  0  0  0  0  0  0
    6.3566   -0.7206    0.0000 C   0  0  0  0  0  0  0  0  0  0  0  0
    8.1585   -0.7206    0.0000 C   0  0  0  0  0  0  0  0  0  0  0  0
    6.1340    0.2543    0.0000 C   0  0  0  0  0  0  0  0  0  0  0  0
    7.1637   -2.1919    0.0000 C   0  0  0  0  0  0  0  0  0  0  0  0
    5.6040   -1.4408    0.0000 C   0  0  0  0  0  0  0  0  0  0  0  0
   10.8199   -0.4055    0.0000 C   0  0  0  0  0  0  0  0  0  0  0  0
   10.3682   -1.7456    0.0000 C   0  0  0  0  0  0  0  0  0  0  0  0
    4.7211    2.5316    0.0000 C   0  0  0  0  0  0  0  0  0  0  0  0
    3.9549    1.3429    0.0000 C   0  0  0  0  0  0  0  0  0  0  0  0
    8.9582   -2.3333    0.0000 C   0  0  0  0  0  0  0  0  0  0  0  0
    4.3745   -0.1259    0.0000 C   0  0  0  0  0  0  0  0  0  0  0  0
    8.0198   -2.7852    0.0000 C   0  0  0  0  0  0  0  0  0  0  0  0
    4.6063   -1.1414    0.0000 C   0  0  0  0  0  0  0  0  0  0  0  0
    9.4797    0.0461    0.0000 C   0  0  0  0  0  0  0  0  0  0  0  0
    5.9097    1.7654    0.0000 C   0  0  0  0  0  0  0  0  0  0  0  0
    6.5319   -3.0740    0.0000 C   0  0  0  0  0  0  0  0  0  0  0  0
    5.8698   -2.4927    0.0000 C   0  0  0  0  0  0  0  0  0  0  0  0
    8.4981   -3.7591    0.0000 C   0  0  0  0  0  0  0  0  0  0  0  0
    3.8053   -1.8732    0.0000 C   0  0  0  0  0  0  0  0  0  0  0  0
   11.6526   -0.9592    0.0000 C   0  0  0  0  0  0  0  0  0  0  0  0
    9.8145   -2.5783    0.0000 C   0  0  0  0  0  0  0  0  0  0  0  0
    5.4619    3.2032    0.0000 C   0  0  0  0  0  0  0  0  0  0  0  0
    3.2832    2.0838    0.0000 C   0  0  0  0  0  0  0  0  0  0  0  0
   10.8831    0.5925    0.0000 C   0  0  0  0  0  0  0  0  0  0  0  0
   11.3662   -1.8088    0.0000 C   0  0  0  0  0  0  0  0  0  0  0  0
    3.7690    2.8373    0.0000 C   0  0  0  0  0  0  0  0  0  0  0  0
    3.6491    0.3908    0.0000 C   0  0  0  0  0  0  0  0  0  0  0  0
    6.9269   -4.2278    0.0000 C   0  0  0  0  0  0  0  0  0  0  0  0
    5.0860   -3.2428    0.0000 C   0  0  0  0  0  0  0  0  0  0  0  0
    7.9475   -4.4864    0.0000 C   0  0  0  0  0  0  0  0  0  0  0  0
    4.0467   -2.9310    0.0000 C   0  0  0  0  0  0  0  0  0  0  0  0
   12.5485   -0.5149    0.0000 C   0  0  0  0  0  0  0  0  0  0  0  0
   10.2588   -3.4742    0.0000 C   0  0  0  0  0  0  0  0  0  0  0  0
    5.2507    4.1806    0.0000 C   0  0  0  0  0  0  0  0  0  0  0  0
    2.3058    1.8725    0.0000 C   0  0  0  0  0  0  0  0  0  0  0  0
   11.7789    1.0368    0.0000 C   0  0  0  0  0  0  0  0  0  0  0  0
   11.8105   -2.7047    0.0000 C   0  0  0  0  0  0  0  0  0  0  0  0
    3.5577    3.8148    0.0000 C   0  0  0  0  0  0  0  0  0  0  0  0
    2.6716    0.1795    0.0000 C   0  0  0  0  0  0  0  0  0  0  0  0
   12.6116    0.4831    0.0000 C   0  0  0  0  0  0  0  0  0  0  0  0
   11.2568   -3.5374    0.0000 C   0  0  0  0  0  0  0  0  0  0  0  0
    4.2986    4.4864    0.0000 C   0  0  0  0  0  0  0  0  0  0  0  0
    2.0000    0.9204    0.0000 C   0  0  0  0  0  0  0  0  0  0  0  0
    9.4719   -2.6806    0.0000 H   0  0  0  0  0  0  0  0  0  0  0  0
    3.7828    0.0591    0.0000 H   0  0  0  0  0  0  0  0  0  0  0  0
   10.0352    0.3216    0.0000 H   0  0  0  0  0  0  0  0  0  0  0  0
    9.2042    0.6016    0.0000 H   0  0  0  0  0  0  0  0  0  0  0  0
    8.9242   -0.2293    0.0000 H   0  0  0  0  0  0  0  0  0  0  0  0
    6.0407    1.1593    0.0000 H   0  0  0  0  0  0  0  0  0  0  0  0
    6.5158    1.8963    0.0000 H   0  0  0  0  0  0  0  0  0  0  0  0
    5.7788    2.3714    0.0000 H   0  0  0  0  0  0  0  0  0  0  0  0
    5.9185   -2.9838    0.0000 H   0  0  0  0  0  0  0  0  0  0  0  0
    6.4657   -2.6640    0.0000 H   0  0  0  0  0  0  0  0  0  0  0  0
    9.1152   -3.8184    0.0000 H   0  0  0  0  0  0  0  0  0  0  0  0
    3.2136   -1.6882    0.0000 H   0  0  0  0  0  0  0  0  0  0  0  0
   11.6134   -1.5780    0.0000 H   0  0  0  0  0  0  0  0  0  0  0  0
    9.1958   -2.5391    0.0000 H   0  0  0  0  0  0  0  0  0  0  0  0
    6.0522    3.0136    0.0000 H   0  0  0  0  0  0  0  0  0  0  0  0
    3.4728    2.6740    0.0000 H   0  0  0  0  0  0  0  0  0  0  0  0
   10.3668    0.9358    0.0000 H   0  0  0  0  0  0  0  0  0  0  0  0
   11.7096   -1.2926    0.0000 H   0  0  0  0  0  0  0  0  0  0  0  0
    3.3096    2.4209    0.0000 H   0  0  0  0  0  0  0  0  0  0  0  0
    4.0655   -0.0686    0.0000 H   0  0  0  0  0  0  0  0  0  0  0  0
    6.5067   -4.6838    0.0000 H   0  0  0  0  0  0  0  0  0  0  0  0
    5.2309   -3.8457    0.0000 H   0  0  0  0  0  0  0  0  0  0  0  0
    8.1527   -5.0715    0.0000 H   0  0  0  0  0  0  0  0  0  0  0  0
    3.5939   -3.3545    0.0000 H   0  0  0  0  0  0  0  0  0  0  0  0
   13.0647   -0.8582    0.0000 H   0  0  0  0  0  0  0  0  0  0  0  0
    9.9155   -3.9905    0.0000 H   0  0  0  0  0  0  0  0  0  0  0  0
    5.7100    4.5971    0.0000 H   0  0  0  0  0  0  0  0  0  0  0  0
    1.8894    2.3319    0.0000 H   0  0  0  0  0  0  0  0  0  0  0  0
   11.8181    1.6556    0.0000 H   0  0  0  0  0  0  0  0  0  0  0  0
   12.4293   -2.7439    0.0000 H   0  0  0  0  0  0  0  0  0  0  0  0
    2.9674    4.0044    0.0000 H   0  0  0  0  0  0  0  0  0  0  0  0
    2.4821   -0.4108    0.0000 H   0  0  0  0  0  0  0  0  0  0  0  0
   13.1671    0.7585    0.0000 H   0  0  0  0  0  0  0  0  0  0  0  0
   11.5322   -4.0929    0.0000 H   0  0  0  0  0  0  0  0  0  0  0  0
    4.1676    5.0924    0.0000 H   0  0  0  0  0  0  0  0  0  0  0  0
    1.3940    0.7895    0.0000 H   0  0  0  0  0  0  0  0  0  0  0  0
    8.2945    2.3462    0.0000 H   0  0  0  0  0  0  0  0  0  0  0  0
  1  4  1  0  0  0  0
  1  5  1  0  0  0  0
  1  6  1  0  0  0  0
  1  7  2  0  0  0  0
  2  8  1  0  0  0  0
  2 16  1  0  0  0  0
  2 17  1  0  0  0  0
  2 24  1  0  0  0  0
  3  9  1  0  0  0  0
  3 18  1  0  0  0  0
  3 19  1  0  0  0  0
  3 25  1  0  0  0  0
  4 12  1  0  0  0  0
  5 13  1  0  0  0  0
  6 90  1  0  0  0  0
  8 12  1  0  0  0  0
  8 20  2  0  0  0  0
  9 13  1  0  0  0  0
  9 21  2  0  0  0  0
 10 11  1  0  0  0  0
 10 12  2  0  0  0  0
 10 14  1  0  0  0  0
 11 13  2  0  0  0  0
 11 15  1  0  0  0  0
 14 22  1  0  0  0  0
 14 26  2  0  0  0  0
 15 23  1  0  0  0  0
 15 27  2  0  0  0  0
 16 30  2  0  0  0  0
 16 34  1  0  0  0  0
 17 31  2  0  0  0  0
 17 35  1  0  0  0  0
 18 32  2  0  0  0  0
 18 36  1  0  0  0  0
 19 33  2  0  0  0  0
 19 37  1  0  0  0  0
 20 22  1  0  0  0  0
 20 54  1  0  0  0  0
 21 23  1  0  0  0  0
 21 55  1  0  0  0  0
 22 28  2  0  0  0  0
 23 29  2  0  0  0  0
 24 56  1  0  0  0  0
 24 57  1  0  0  0  0
 24 58  1  0  0  0  0
 25 59  1  0  0  0  0
 25 60  1  0  0  0  0
 25 61  1  0  0  0  0
 26 38  1  0  0  0  0
 26 62  1  0  0  0  0
 27 39  1  0  0  0  0
 27 63  1  0  0  0  0
 28 40  1  0  0  0  0
 28 64  1  0  0  0  0
 29 41  1  0  0  0  0
 29 65  1  0  0  0  0
 30 42  1  0  0  0  0
 30 66  1  0  0  0  0
 31 43  1  0  0  0  0
 31 67  1  0  0  0  0
 32 44  1  0  0  0  0
 32 68  1  0  0  0  0
 33 45  1  0  0  0  0
 33 69  1  0  0  0  0
 34 46  2  0  0  0  0
 34 70  1  0  0  0  0
 35 47  2  0  0  0  0
 35 71  1  0  0  0  0
 36 48  2  0  0  0  0
 36 72  1  0  0  0  0
 37 49  2  0  0  0  0
 37 73  1  0  0  0  0
 38 40  2  0  0  0  0
 38 74  1  0  0  0  0
 39 41  2  0  0  0  0
 39 75  1  0  0  0  0
 40 76  1  0  0  0  0
 41 77  1  0  0  0  0
 42 50  2  0  0  0  0
 42 78  1  0  0  0  0
 43 51  2  0  0  0  0
 43 79  1  0  0  0  0
 44 52  2  0  0  0  0
 44 80  1  0  0  0  0
 45 53  2  0  0  0  0
 45 81  1  0  0  0  0
 46 50  1  0  0  0  0
 46 82  1  0  0  0  0
 47 51  1  0  0  0  0
 47 83  1  0  0  0  0
 48 52  1  0  0  0  0
 48 84  1  0  0  0  0
 49 53  1  0  0  0  0
 49 85  1  0  0  0  0
 50 86  1  0  0  0  0
 51 87  1  0  0  0  0
 52 88  1  0  0  0  0
 53 89  1  0  0  0  0
M  END
> <PUBCHEM_COMPOUND_CID>
53234228

> <PUBCHEM_COMPOUND_CANONICALIZED>
1

> <PUBCHEM_CACTVS_COMPLEXITY>
1140

> <PUBCHEM_CACTVS_HBOND_ACCEPTOR>
4

> <PUBCHEM_CACTVS_HBOND_DONOR>
1

> <PUBCHEM_CACTVS_ROTATABLE_BOND>
6

> <PUBCHEM_CACTVS_SUBSKEYS>
AAADcfB8OA4AAAAAAAAAAAAAAAAAAAAAAAAwYMGDBIAAAADBVAAAGhAACCAADASAuAByBsAAARGAQiBCAIACAAAgIAAIiAAECIgIJiKAERKAMAAkwBEIiAfAwPAOoAADAAAYAABAAAYAADAAAAAAAAAAAA==

> <PUBCHEM_IUPAC_OPENEYE_NAME>
[13-hydroxy-16-[methyl(diphenyl)silyl]-13-oxo-12,14-dioxa-13lambda5-phosphapentacyclo[13.8.0.02,11.03,8.018,23]tricosa-1(15),2(11),3,5,7,9,16,18,20,22-decaen-10-yl]-methyl-diphenyl-silane

> <PUBCHEM_IUPAC_CAS_NAME>
[13-hydroxy-16-[methyl(diphenyl)silyl]-13-oxo-12,14-dioxa-13lambda5-phosphapentacyclo[13.8.0.02,11.03,8.018,23]tricosa-1(15),2(11),3,5,7,9,16,18,20,22-decaen-10-yl]-methyl-diphenylsilane

> <PUBCHEM_IUPAC_NAME_MARKUP>
[13-hydroxy-16-[methyl(diphenyl)silyl]-13-oxo-12,14-dioxa-13&lambda;<SUP>5</SUP>-phosphapentacyclo[13.8.0.0<SUP>2,11</SUP>.0<SUP>3,8</SUP>.0<SUP>18,23</SUP>]tricosa-1(15),2(11),3,5,7,9,16,18,20,22-decaen-10-yl]-methyl-diphenylsilane

> <PUBCHEM_IUPAC_NAME>
[13-hydroxy-16-[methyl(diphenyl)silyl]-13-oxo-12,14-dioxa-13lambda5-phosphapentacyclo[13.8.0.02,11.03,8.018,23]tricosa-1(15),2(11),3,5,7,9,16,18,20,22-decaen-10-yl]-methyl-diphenylsilane

> <PUBCHEM_IUPAC_SYSTEMATIC_NAME>
methyl-[16-[methyl(diphenyl)silyl]-13-oxidanyl-13-oxidanylidene-12,14-dioxa-13lambda5-phosphapentacyclo[13.8.0.02,11.03,8.018,23]tricosa-1(15),2(11),3,5,7,9,16,18,20,22-decaen-10-yl]-diphenyl-silane

> <PUBCHEM_IUPAC_TRADITIONAL_NAME>
[13-hydroxy-13-keto-16-[methyl(diphenyl)silyl]-12,14-dioxa-13lambda5-phosphapentacyclo[13.8.0.02,11.03,8.018,23]tricosa-1(15),2(11),3,5,7,9,16,18,20,22-decaen-10-yl]-methyl-diphenyl-silane

> <PUBCHEM_IUPAC_INCHI>
InChI=1S/C46H37O4PSi2/c1-52(35-21-7-3-8-22-35,36-23-9-4-10-24-36)41-31-33-19-15-17-29-39(33)43-44-40-30-18-16-20-34(40)32-42(46(44)50-51(47,48)49-45(41)43)53(2,37-25-11-5-12-26-37)38-27-13-6-14-28-38/h3-32H,1-2H3,(H,47,48)

> <PUBCHEM_IUPAC_INCHIKEY>
FMGHOURPBMCPFD-UHFFFAOYSA-N

> <PUBCHEM_EXACT_MASS>
740.1968

> <PUBCHEM_MOLECULAR_FORMULA>
C46H37O4PSi2

> <PUBCHEM_MOLECULAR_WEIGHT>
740.9

> <PUBCHEM_OPENEYE_CAN_SMILES>
C[Si](C1=CC=CC=C1)(C2=CC=CC=C2)C3=CC4=CC=CC=C4C5=C3OP(=O)(OC6=C5C7=CC=CC=C7C=C6[Si](C)(C8=CC=CC=C8)C9=CC=CC=C9)O

> <PUBCHEM_OPENEYE_ISO_SMILES>
C[Si](C1=CC=CC=C1)(C2=CC=CC=C2)C3=CC4=CC=CC=C4C5=C3OP(=O)(OC6=C5C7=CC=CC=C7C=C6[Si](C)(C8=CC=CC=C8)C9=CC=CC=C9)O

> <PUBCHEM_CACTVS_TPSA>
55.8

> <PUBCHEM_MONOISOTOPIC_WEIGHT>
740.1968

> <PUBCHEM_TOTAL_CHARGE>
0

> <PUBCHEM_HEAVY_ATOM_COUNT>
53

> <PUBCHEM_ATOM_DEF_STEREO_COUNT>
0

> <PUBCHEM_ATOM_UDEF_STEREO_COUNT>
0

> <PUBCHEM_BOND_DEF_STEREO_COUNT>
0

> <PUBCHEM_BOND_UDEF_STEREO_COUNT>
0

> <PUBCHEM_ISOTOPIC_ATOM_COUNT>
0

> <PUBCHEM_COMPONENT_COUNT>
1

> <PUBCHEM_CACTVS_TAUTO_COUNT>
-1

> <PUBCHEM_COORDINATE_TYPE>
1
5
255

> <PUBCHEM_BONDANNOTATIONS>
10  12  8
10  14  8
11  13  8
11  15  8
14  22  8
14  26  8
15  23  8
15  27  8
16  30  8
16  34  8
17  31  8
17  35  8
18  32  8
18  36  8
19  33  8
19  37  8
20  22  8
21  23  8
22  28  8
23  29  8
26  38  8
27  39  8
28  40  8
29  41  8
30  42  8
31  43  8
32  44  8
33  45  8
34  46  8
35  47  8
36  48  8
37  49  8
38  40  8
39  41  8
42  50  8
43  51  8
44  52  8
45  53  8
46  50  8
47  51  8
48  52  8
49  53  8
8  12  8
8  20  8
9  13  8
9  21  8

$$$$
