11643610
  -OEChem-04302102142D

104114  0     0  0  0  0  0  0999 V2000
    7.9245    1.2980    0.0000 P   0  0  0  0  0  0  0  0  0  0  0  0
   10.1669   -1.2678    0.0000 Si  0  0  0  0  0  0  0  0  0  0  0  0
    4.7777    1.6847    0.0000 Si  0  0  0  0  0  0  0  0  0  0  0  0
    8.5480    0.5162    0.0000 O   0  0  0  0  0  0  0  0  0  0  0  0
    6.9245    1.2980    0.0000 O   0  0  0  0  0  0  0  0  0  0  0  0
    8.7064    1.9215    0.0000 O   0  0  0  0  0  0  0  0  0  0  0  0
    7.9245    2.2980    0.0000 O   0  0  0  0  0  0  0  0  0  0  0  0
    9.1951   -1.0322    0.0000 C   0  0  0  0  0  0  0  0  0  0  0  0
    5.3105    0.8385    0.0000 C   0  0  0  0  0  0  0  0  0  0  0  0
    7.4245   -0.8927    0.0000 C   0  0  0  0  0  0  0  0  0  0  0  0
    6.5236   -0.4588    0.0000 C   0  0  0  0  0  0  0  0  0  0  0  0
    8.3255   -0.4588    0.0000 C   0  0  0  0  0  0  0  0  0  0  0  0
    6.3010    0.5162    0.0000 C   0  0  0  0  0  0  0  0  0  0  0  0
    7.3307   -1.9301    0.0000 C   0  0  0  0  0  0  0  0  0  0  0  0
    5.7710   -1.1790    0.0000 C   0  0  0  0  0  0  0  0  0  0  0  0
   11.1388   -1.5033    0.0000 C   0  0  0  0  0  0  0  0  0  0  0  0
   10.1038   -2.2658    0.0000 C   0  0  0  0  0  0  0  0  0  0  0  0
   10.4025   -0.2959    0.0000 C   0  0  0  0  0  0  0  0  0  0  0  0
    4.2449    2.5310    0.0000 C   0  0  0  0  0  0  0  0  0  0  0  0
    3.8518    1.3070    0.0000 C   0  0  0  0  0  0  0  0  0  0  0  0
    5.5186    2.3564    0.0000 C   0  0  0  0  0  0  0  0  0  0  0  0
    9.1252   -2.0715    0.0000 C   0  0  0  0  0  0  0  0  0  0  0  0
    4.5415    0.1359    0.0000 C   0  0  0  0  0  0  0  0  0  0  0  0
    8.1868   -2.5234    0.0000 C   0  0  0  0  0  0  0  0  0  0  0  0
    4.7733   -0.8796    0.0000 C   0  0  0  0  0  0  0  0  0  0  0  0
    6.3425   -2.3781    0.0000 C   0  0  0  0  0  0  0  0  0  0  0  0
    5.4752   -2.2229    0.0000 C   0  0  0  0  0  0  0  0  0  0  0  0
    8.1140   -3.6060    0.0000 C   0  0  0  0  0  0  0  0  0  0  0  0
    3.7137   -1.1129    0.0000 C   0  0  0  0  0  0  0  0  0  0  0  0
   11.4208   -2.4627    0.0000 C   0  0  0  0  0  0  0  0  0  0  0  0
    9.2078   -2.7100    0.0000 C   0  0  0  0  0  0  0  0  0  0  0  0
   11.3619   -0.0139    0.0000 C   0  0  0  0  0  0  0  0  0  0  0  0
    4.7114    3.4155    0.0000 C   0  0  0  0  0  0  0  0  0  0  0  0
    3.0617    1.9200    0.0000 C   0  0  0  0  0  0  0  0  0  0  0  0
    6.4707    2.0506    0.0000 C   0  0  0  0  0  0  0  0  0  0  0  0
   11.8287   -0.7794    0.0000 C   0  0  0  0  0  0  0  0  0  0  0  0
   10.9364   -2.8195    0.0000 C   0  0  0  0  0  0  0  0  0  0  0  0
    9.6786    0.3940    0.0000 C   0  0  0  0  0  0  0  0  0  0  0  0
    3.2457    2.4927    0.0000 C   0  0  0  0  0  0  0  0  0  0  0  0
    3.7160    0.3163    0.0000 C   0  0  0  0  0  0  0  0  0  0  0  0
    5.3074    3.3338    0.0000 C   0  0  0  0  0  0  0  0  0  0  0  0
    6.2448   -3.4587    0.0000 C   0  0  0  0  0  0  0  0  0  0  0  0
    4.3269   -2.6335    0.0000 C   0  0  0  0  0  0  0  0  0  0  0  0
    7.1365   -4.0768    0.0000 C   0  0  0  0  0  0  0  0  0  0  0  0
    3.4883   -1.9968    0.0000 C   0  0  0  0  0  0  0  0  0  0  0  0
   12.3926   -2.6982    0.0000 C   0  0  0  0  0  0  0  0  0  0  0  0
    9.1447   -3.7080    0.0000 C   0  0  0  0  0  0  0  0  0  0  0  0
   11.5974    0.9579    0.0000 C   0  0  0  0  0  0  0  0  0  0  0  0
    4.1786    4.2618    0.0000 C   0  0  0  0  0  0  0  0  0  0  0  0
    2.1358    1.5423    0.0000 C   0  0  0  0  0  0  0  0  0  0  0  0
    7.2116    2.7222    0.0000 C   0  0  0  0  0  0  0  0  0  0  0  0
   12.8006   -1.0149    0.0000 C   0  0  0  0  0  0  0  0  0  0  0  0
   10.8732   -3.8175    0.0000 C   0  0  0  0  0  0  0  0  0  0  0  0
    9.9141    1.3659    0.0000 C   0  0  0  0  0  0  0  0  0  0  0  0
    2.7129    3.3389    0.0000 C   0  0  0  0  0  0  0  0  0  0  0  0
    2.7901   -0.0614    0.0000 C   0  0  0  0  0  0  0  0  0  0  0  0
    6.0482    4.0055    0.0000 C   0  0  0  0  0  0  0  0  0  0  0  0
   13.0825   -1.9744    0.0000 C   0  0  0  0  0  0  0  0  0  0  0  0
    9.9774   -4.2618    0.0000 C   0  0  0  0  0  0  0  0  0  0  0  0
   10.8735    1.6478    0.0000 C   0  0  0  0  0  0  0  0  0  0  0  0
    3.1793    4.2235    0.0000 C   0  0  0  0  0  0  0  0  0  0  0  0
    2.0000    0.5515    0.0000 C   0  0  0  0  0  0  0  0  0  0  0  0
    7.0003    3.6997    0.0000 C   0  0  0  0  0  0  0  0  0  0  0  0
    9.6388   -2.4188    0.0000 H   0  0  0  0  0  0  0  0  0  0  0  0
    3.9498    0.3209    0.0000 H   0  0  0  0  0  0  0  0  0  0  0  0
    5.8371   -2.0190    0.0000 H   0  0  0  0  0  0  0  0  0  0  0  0
    5.9282   -2.6463    0.0000 H   0  0  0  0  0  0  0  0  0  0  0  0
    8.6276   -3.9533    0.0000 H   0  0  0  0  0  0  0  0  0  0  0  0
    3.2826   -0.6673    0.0000 H   0  0  0  0  0  0  0  0  0  0  0  0
   10.9930   -2.9115    0.0000 H   0  0  0  0  0  0  0  0  0  0  0  0
    8.6916   -2.3667    0.0000 H   0  0  0  0  0  0  0  0  0  0  0  0
   11.8107   -0.4417    0.0000 H   0  0  0  0  0  0  0  0  0  0  0  0
    5.3309    3.4392    0.0000 H   0  0  0  0  0  0  0  0  0  0  0  0
    3.1460    2.5343    0.0000 H   0  0  0  0  0  0  0  0  0  0  0  0
    6.6017    1.4446    0.0000 H   0  0  0  0  0  0  0  0  0  0  0  0
   11.6539   -0.1845    0.0000 H   0  0  0  0  0  0  0  0  0  0  0  0
   11.4919   -2.5440    0.0000 H   0  0  0  0  0  0  0  0  0  0  0  0
    9.0837    0.2192    0.0000 H   0  0  0  0  0  0  0  0  0  0  0  0
    2.9565    1.9443    0.0000 H   0  0  0  0  0  0  0  0  0  0  0  0
    4.2059   -0.0638    0.0000 H   0  0  0  0  0  0  0  0  0  0  0  0
    4.7171    3.5234    0.0000 H   0  0  0  0  0  0  0  0  0  0  0  0
    5.6831   -3.7212    0.0000 H   0  0  0  0  0  0  0  0  0  0  0  0
    4.2324   -3.2462    0.0000 H   0  0  0  0  0  0  0  0  0  0  0  0
    7.0878   -4.6948    0.0000 H   0  0  0  0  0  0  0  0  0  0  0  0
    2.9030   -2.2011    0.0000 H   0  0  0  0  0  0  0  0  0  0  0  0
   12.5674   -3.2931    0.0000 H   0  0  0  0  0  0  0  0  0  0  0  0
    8.5892   -3.9835    0.0000 H   0  0  0  0  0  0  0  0  0  0  0  0
   12.1923    1.1328    0.0000 H   0  0  0  0  0  0  0  0  0  0  0  0
    4.4678    4.8102    0.0000 H   0  0  0  0  0  0  0  0  0  0  0  0
    1.6460    1.9223    0.0000 H   0  0  0  0  0  0  0  0  0  0  0  0
    7.8019    2.5327    0.0000 H   0  0  0  0  0  0  0  0  0  0  0  0
   13.2283   -0.5661    0.0000 H   0  0  0  0  0  0  0  0  0  0  0  0
   11.3895   -4.1608    0.0000 H   0  0  0  0  0  0  0  0  0  0  0  0
    9.4653    1.7936    0.0000 H   0  0  0  0  0  0  0  0  0  0  0  0
    2.0933    3.3152    0.0000 H   0  0  0  0  0  0  0  0  0  0  0  0
    2.7059   -0.6757    0.0000 H   0  0  0  0  0  0  0  0  0  0  0  0
    5.9173    4.6115    0.0000 H   0  0  0  0  0  0  0  0  0  0  0  0
   13.6851   -2.1204    0.0000 H   0  0  0  0  0  0  0  0  0  0  0  0
    9.9383   -4.8805    0.0000 H   0  0  0  0  0  0  0  0  0  0  0  0
   11.0196    2.2504    0.0000 H   0  0  0  0  0  0  0  0  0  0  0  0
    2.8490    4.7481    0.0000 H   0  0  0  0  0  0  0  0  0  0  0  0
    1.4259    0.3173    0.0000 H   0  0  0  0  0  0  0  0  0  0  0  0
    7.4597    4.1161    0.0000 H   0  0  0  0  0  0  0  0  0  0  0  0
    9.2835    1.6950    0.0000 H   0  0  0  0  0  0  0  0  0  0  0  0
  1  4  1  0  0  0  0
  1  5  1  0  0  0  0
  1  6  1  0  0  0  0
  1  7  2  0  0  0  0
  2  8  1  0  0  0  0
  2 16  1  0  0  0  0
  2 17  1  0  0  0  0
  2 18  1  0  0  0  0
  3  9  1  0  0  0  0
  3 19  1  0  0  0  0
  3 20  1  0  0  0  0
  3 21  1  0  0  0  0
  4 12  1  0  0  0  0
  5 13  1  0  0  0  0
  6104  1  0  0  0  0
  8 12  1  0  0  0  0
  8 22  2  0  0  0  0
  9 13  1  0  0  0  0
  9 23  2  0  0  0  0
 10 11  1  0  0  0  0
 10 12  2  0  0  0  0
 10 14  1  0  0  0  0
 11 13  2  0  0  0  0
 11 15  1  0  0  0  0
 14 24  1  0  0  0  0
 14 26  2  0  0  0  0
 15 25  1  0  0  0  0
 15 27  2  0  0  0  0
 16 30  2  0  0  0  0
 16 36  1  0  0  0  0
 17 31  2  0  0  0  0
 17 37  1  0  0  0  0
 18 32  2  0  0  0  0
 18 38  1  0  0  0  0
 19 33  2  0  0  0  0
 19 39  1  0  0  0  0
 20 34  2  0  0  0  0
 20 40  1  0  0  0  0
 21 35  2  0  0  0  0
 21 41  1  0  0  0  0
 22 24  1  0  0  0  0
 22 64  1  0  0  0  0
 23 25  1  0  0  0  0
 23 65  1  0  0  0  0
 24 28  2  0  0  0  0
 25 29  2  0  0  0  0
 26 42  1  0  0  0  0
 26 66  1  0  0  0  0
 27 43  1  0  0  0  0
 27 67  1  0  0  0  0
 28 44  1  0  0  0  0
 28 68  1  0  0  0  0
 29 45  1  0  0  0  0
 29 69  1  0  0  0  0
 30 46  1  0  0  0  0
 30 70  1  0  0  0  0
 31 47  1  0  0  0  0
 31 71  1  0  0  0  0
 32 48  1  0  0  0  0
 32 72  1  0  0  0  0
 33 49  1  0  0  0  0
 33 73  1  0  0  0  0
 34 50  1  0  0  0  0
 34 74  1  0  0  0  0
 35 51  1  0  0  0  0
 35 75  1  0  0  0  0
 36 52  2  0  0  0  0
 36 76  1  0  0  0  0
 37 53  2  0  0  0  0
 37 77  1  0  0  0  0
 38 54  2  0  0  0  0
 38 78  1  0  0  0  0
 39 55  2  0  0  0  0
 39 79  1  0  0  0  0
 40 56  2  0  0  0  0
 40 80  1  0  0  0  0
 41 57  2  0  0  0  0
 41 81  1  0  0  0  0
 42 44  2  0  0  0  0
 42 82  1  0  0  0  0
 43 45  2  0  0  0  0
 43 83  1  0  0  0  0
 44 84  1  0  0  0  0
 45 85  1  0  0  0  0
 46 58  2  0  0  0  0
 46 86  1  0  0  0  0
 47 59  2  0  0  0  0
 47 87  1  0  0  0  0
 48 60  2  0  0  0  0
 48 88  1  0  0  0  0
 49 61  2  0  0  0  0
 49 89  1  0  0  0  0
 50 62  2  0  0  0  0
 50 90  1  0  0  0  0
 51 63  2  0  0  0  0
 51 91  1  0  0  0  0
 52 58  1  0  0  0  0
 52 92  1  0  0  0  0
 53 59  1  0  0  0  0
 53 93  1  0  0  0  0
 54 60  1  0  0  0  0
 54 94  1  0  0  0  0
 55 61  1  0  0  0  0
 55 95  1  0  0  0  0
 56 62  1  0  0  0  0
 56 96  1  0  0  0  0
 57 63  1  0  0  0  0
 57 97  1  0  0  0  0
 58 98  1  0  0  0  0
 59 99  1  0  0  0  0
 60100  1  0  0  0  0
 61101  1  0  0  0  0
 62102  1  0  0  0  0
 63103  1  0  0  0  0
M  END
> <PUBCHEM_COMPOUND_CID>
11643610

> <PUBCHEM_COMPOUND_CANONICALIZED>
1

> <PUBCHEM_CACTVS_COMPLEXITY>
1320

> <PUBCHEM_CACTVS_HBOND_ACCEPTOR>
4

> <PUBCHEM_CACTVS_HBOND_DONOR>
1

> <PUBCHEM_CACTVS_ROTATABLE_BOND>
8

> <PUBCHEM_CACTVS_SUBSKEYS>
AAADcfB8OA4AAAAAAAAAAAAAAAAAAAAAAAAwYMGDBIAAAADBVAAAGhAACCAADASAuAAwBsAAARGAQiBCAIACAAAgIAAIiAAECIgIJiKAERKAMAAkwBEIiAfAwPAOoAADAAAYAABAAAYAADAAAAAAAAAAAA==

> <PUBCHEM_IUPAC_OPENEYE_NAME>
(13-hydroxy-13-oxo-16-triphenylsilyl-12,14-dioxa-13lambda5-phosphapentacyclo[13.8.0.02,11.03,8.018,23]tricosa-1(15),2(11),3,5,7,9,16,18,20,22-decaen-10-yl)-triphenyl-silane

> <PUBCHEM_IUPAC_CAS_NAME>
(13-hydroxy-13-oxo-16-triphenylsilyl-12,14-dioxa-13lambda5-phosphapentacyclo[13.8.0.02,11.03,8.018,23]tricosa-1(15),2(11),3,5,7,9,16,18,20,22-decaen-10-yl)-triphenylsilane

> <PUBCHEM_IUPAC_NAME_MARKUP>
(13-hydroxy-13-oxo-16-triphenylsilyl-12,14-dioxa-13&lambda;<SUP>5</SUP>-phosphapentacyclo[13.8.0.0<SUP>2,11</SUP>.0<SUP>3,8</SUP>.0<SUP>18,23</SUP>]tricosa-1(15),2(11),3,5,7,9,16,18,20,22-decaen-10-yl)-triphenylsilane

> <PUBCHEM_IUPAC_NAME>
(13-hydroxy-13-oxo-16-triphenylsilyl-12,14-dioxa-13lambda5-phosphapentacyclo[13.8.0.02,11.03,8.018,23]tricosa-1(15),2(11),3,5,7,9,16,18,20,22-decaen-10-yl)-triphenylsilane

> <PUBCHEM_IUPAC_SYSTEMATIC_NAME>
(13-oxidanyl-13-oxidanylidene-16-triphenylsilyl-12,14-dioxa-13lambda5-phosphapentacyclo[13.8.0.02,11.03,8.018,23]tricosa-1(15),2(11),3,5,7,9,16,18,20,22-decaen-10-yl)-triphenyl-silane

> <PUBCHEM_IUPAC_TRADITIONAL_NAME>
(13-hydroxy-13-keto-16-triphenylsilyl-12,14-dioxa-13lambda5-phosphapentacyclo[13.8.0.02,11.03,8.018,23]tricosa-1(15),2(11),3,5,7,9,16,18,20,22-decaen-10-yl)-triphenyl-silane

> <PUBCHEM_IUPAC_INCHI>
InChI=1S/C56H41O4PSi2/c57-61(58)59-55-51(62(43-25-7-1-8-26-43,44-27-9-2-10-28-44)45-29-11-3-12-30-45)39-41-23-19-21-37-49(41)53(55)54-50-38-22-20-24-42(50)40-52(56(54)60-61)63(46-31-13-4-14-32-46,47-33-15-5-16-34-47)48-35-17-6-18-36-48/h1-40H,(H,57,58)

> <PUBCHEM_IUPAC_INCHIKEY>
BDQOCXQVIFQJRK-UHFFFAOYSA-N

> <PUBCHEM_EXACT_MASS>
864.2281

> <PUBCHEM_MOLECULAR_FORMULA>
C56H41O4PSi2

> <PUBCHEM_MOLECULAR_WEIGHT>
865.1

> <PUBCHEM_OPENEYE_CAN_SMILES>
C1=CC=C(C=C1)[Si](C2=CC=CC=C2)(C3=CC=CC=C3)C4=CC5=CC=CC=C5C6=C4OP(=O)(OC7=C6C8=CC=CC=C8C=C7[Si](C9=CC=CC=C9)(C1=CC=CC=C1)C1=CC=CC=C1)O

> <PUBCHEM_OPENEYE_ISO_SMILES>
C1=CC=C(C=C1)[Si](C2=CC=CC=C2)(C3=CC=CC=C3)C4=CC5=CC=CC=C5C6=C4OP(=O)(OC7=C6C8=CC=CC=C8C=C7[Si](C9=CC=CC=C9)(C1=CC=CC=C1)C1=CC=CC=C1)O

> <PUBCHEM_CACTVS_TPSA>
55.8

> <PUBCHEM_MONOISOTOPIC_WEIGHT>
864.2281

> <PUBCHEM_TOTAL_CHARGE>
0

> <PUBCHEM_HEAVY_ATOM_COUNT>
63

> <PUBCHEM_ATOM_DEF_STEREO_COUNT>
0

> <PUBCHEM_ATOM_UDEF_STEREO_COUNT>
0

> <PUBCHEM_BOND_DEF_STEREO_COUNT>
0

> <PUBCHEM_BOND_UDEF_STEREO_COUNT>
0

> <PUBCHEM_ISOTOPIC_ATOM_COUNT>
0

> <PUBCHEM_COMPONENT_COUNT>
1

> <PUBCHEM_CACTVS_TAUTO_COUNT>
-1

> <PUBCHEM_COORDINATE_TYPE>
1
5
255

> <PUBCHEM_BONDANNOTATIONS>
10  12  8
10  14  8
11  13  8
11  15  8
14  24  8
14  26  8
15  25  8
15  27  8
16  30  8
16  36  8
17  31  8
17  37  8
18  32  8
18  38  8
19  33  8
19  39  8
20  34  8
20  40  8
21  35  8
21  41  8
22  24  8
23  25  8
24  28  8
25  29  8
26  42  8
27  43  8
28  44  8
29  45  8
30  46  8
31  47  8
32  48  8
33  49  8
34  50  8
35  51  8
36  52  8
37  53  8
38  54  8
39  55  8
40  56  8
41  57  8
42  44  8
43  45  8
46  58  8
47  59  8
48  60  8
49  61  8
50  62  8
51  63  8
52  58  8
53  59  8
54  60  8
55  61  8
56  62  8
57  63  8
8  12  8
8  22  8
9  13  8
9  23  8

$$$$
