46176937
  -OEChem-04292123252D

 90 98  0     0  0  0  0  0  0999 V2000
    8.5265   -0.4946    0.0000 P   0  0  0  0  0  0  0  0  0  0  0  0
   16.7746   -2.2646    0.0000 F   0  0  0  0  0  0  0  0  0  0  0  0
   16.4956   -0.8782    0.0000 F   0  0  0  0  0  0  0  0  0  0  0  0
   15.3881   -2.5436    0.0000 F   0  0  0  0  0  0  0  0  0  0  0  0
    7.0789    5.9480    0.0000 F   0  0  0  0  0  0  0  0  0  0  0  0
    5.6664    6.0172    0.0000 F   0  0  0  0  0  0  0  0  0  0  0  0
    7.0097    4.5355    0.0000 F   0  0  0  0  0  0  0  0  0  0  0  0
   14.4660    2.3906    0.0000 F   0  0  0  0  0  0  0  0  0  0  0  0
   15.4009    1.3294    0.0000 F   0  0  0  0  0  0  0  0  0  0  0  0
   13.4049    1.4557    0.0000 F   0  0  0  0  0  0  0  0  0  0  0  0
    2.0000    4.8504    0.0000 F   0  0  0  0  0  0  0  0  0  0  0  0
    3.2579    5.4967    0.0000 F   0  0  0  0  0  0  0  0  0  0  0  0
    2.6463    3.5925    0.0000 F   0  0  0  0  0  0  0  0  0  0  0  0
    9.1500   -1.2765    0.0000 O   0  0  0  0  0  0  0  0  0  0  0  0
    7.5265   -0.4946    0.0000 O   0  0  0  0  0  0  0  0  0  0  0  0
    8.5265    0.5054    0.0000 O   0  0  0  0  0  0  0  0  0  0  0  0
    9.3083    0.1289    0.0000 O   0  0  0  0  0  0  0  0  0  0  0  0
    8.0265   -2.6853    0.0000 C   0  0  0  0  0  0  0  0  0  0  0  0
    7.1255   -2.2514    0.0000 C   0  0  0  0  0  0  0  0  0  0  0  0
    8.9274   -2.2514    0.0000 C   0  0  0  0  0  0  0  0  0  0  0  0
    6.9030   -1.2765    0.0000 C   0  0  0  0  0  0  0  0  0  0  0  0
    7.9326   -3.7227    0.0000 C   0  0  0  0  0  0  0  0  0  0  0  0
    6.3729   -2.9716    0.0000 C   0  0  0  0  0  0  0  0  0  0  0  0
    9.7970   -2.8248    0.0000 C   0  0  0  0  0  0  0  0  0  0  0  0
    5.9125   -0.9541    0.0000 C   0  0  0  0  0  0  0  0  0  0  0  0
    8.7887   -4.3160    0.0000 C   0  0  0  0  0  0  0  0  0  0  0  0
    5.3752   -2.6722    0.0000 C   0  0  0  0  0  0  0  0  0  0  0  0
    9.7272   -3.8641    0.0000 C   0  0  0  0  0  0  0  0  0  0  0  0
    5.1435   -1.6567    0.0000 C   0  0  0  0  0  0  0  0  0  0  0  0
   10.6929   -2.3806    0.0000 C   0  0  0  0  0  0  0  0  0  0  0  0
    5.7012    0.0233    0.0000 C   0  0  0  0  0  0  0  0  0  0  0  0
    7.3008   -4.6048    0.0000 C   0  0  0  0  0  0  0  0  0  0  0  0
    6.6388   -4.0235    0.0000 C   0  0  0  0  0  0  0  0  0  0  0  0
    9.2670   -5.2899    0.0000 C   0  0  0  0  0  0  0  0  0  0  0  0
    4.5742   -3.4040    0.0000 C   0  0  0  0  0  0  0  0  0  0  0  0
    7.6958   -5.7586    0.0000 C   0  0  0  0  0  0  0  0  0  0  0  0
    5.8549   -4.7736    0.0000 C   0  0  0  0  0  0  0  0  0  0  0  0
    8.7164   -6.0172    0.0000 C   0  0  0  0  0  0  0  0  0  0  0  0
    4.8156   -4.4618    0.0000 C   0  0  0  0  0  0  0  0  0  0  0  0
   10.7561   -1.3825    0.0000 C   0  0  0  0  0  0  0  0  0  0  0  0
    4.7491    0.3291    0.0000 C   0  0  0  0  0  0  0  0  0  0  0  0
   11.5256   -2.9343    0.0000 C   0  0  0  0  0  0  0  0  0  0  0  0
    6.4421    0.6950    0.0000 C   0  0  0  0  0  0  0  0  0  0  0  0
   12.4847   -1.4920    0.0000 C   0  0  0  0  0  0  0  0  0  0  0  0
    5.2788    1.9782    0.0000 C   0  0  0  0  0  0  0  0  0  0  0  0
   11.6520   -0.9383    0.0000 C   0  0  0  0  0  0  0  0  0  0  0  0
    4.5379    1.3065    0.0000 C   0  0  0  0  0  0  0  0  0  0  0  0
   12.4215   -2.4900    0.0000 C   0  0  0  0  0  0  0  0  0  0  0  0
    6.2309    1.6724    0.0000 C   0  0  0  0  0  0  0  0  0  0  0  0
   13.3806   -1.0477    0.0000 C   0  0  0  0  0  0  0  0  0  0  0  0
    5.0675    2.9556    0.0000 C   0  0  0  0  0  0  0  0  0  0  0  0
   13.4438   -0.0497    0.0000 C   0  0  0  0  0  0  0  0  0  0  0  0
    4.1154    3.2614    0.0000 C   0  0  0  0  0  0  0  0  0  0  0  0
   14.2133   -1.6015    0.0000 C   0  0  0  0  0  0  0  0  0  0  0  0
    5.8084    3.6273    0.0000 C   0  0  0  0  0  0  0  0  0  0  0  0
   14.3397    0.3945    0.0000 C   0  0  0  0  0  0  0  0  0  0  0  0
    3.9042    4.2388    0.0000 C   0  0  0  0  0  0  0  0  0  0  0  0
   15.1092   -1.1572    0.0000 C   0  0  0  0  0  0  0  0  0  0  0  0
    5.5972    4.6047    0.0000 C   0  0  0  0  0  0  0  0  0  0  0  0
   15.1724   -0.1592    0.0000 C   0  0  0  0  0  0  0  0  0  0  0  0
    4.6451    4.9105    0.0000 C   0  0  0  0  0  0  0  0  0  0  0  0
   15.9419   -1.7109    0.0000 C   0  0  0  0  0  0  0  0  0  0  0  0
    6.3380    5.2764    0.0000 C   0  0  0  0  0  0  0  0  0  0  0  0
   14.4029    1.3926    0.0000 C   0  0  0  0  0  0  0  0  0  0  0  0
    2.9521    4.5446    0.0000 C   0  0  0  0  0  0  0  0  0  0  0  0
   10.2408   -4.2114    0.0000 H   0  0  0  0  0  0  0  0  0  0  0  0
    4.5517   -1.4717    0.0000 H   0  0  0  0  0  0  0  0  0  0  0  0
    6.6874   -4.5146    0.0000 H   0  0  0  0  0  0  0  0  0  0  0  0
    7.2346   -4.1948    0.0000 H   0  0  0  0  0  0  0  0  0  0  0  0
    9.8841   -5.3492    0.0000 H   0  0  0  0  0  0  0  0  0  0  0  0
    3.9825   -3.2190    0.0000 H   0  0  0  0  0  0  0  0  0  0  0  0
    7.2757   -6.2146    0.0000 H   0  0  0  0  0  0  0  0  0  0  0  0
    5.9998   -5.3765    0.0000 H   0  0  0  0  0  0  0  0  0  0  0  0
   10.2398   -1.0392    0.0000 H   0  0  0  0  0  0  0  0  0  0  0  0
    4.2898   -0.0873    0.0000 H   0  0  0  0  0  0  0  0  0  0  0  0
   11.4864   -3.5530    0.0000 H   0  0  0  0  0  0  0  0  0  0  0  0
    7.0324    0.5054    0.0000 H   0  0  0  0  0  0  0  0  0  0  0  0
    8.9217   -6.6023    0.0000 H   0  0  0  0  0  0  0  0  0  0  0  0
    4.3628   -4.8853    0.0000 H   0  0  0  0  0  0  0  0  0  0  0  0
   11.6912   -0.3195    0.0000 H   0  0  0  0  0  0  0  0  0  0  0  0
    3.9476    1.4961    0.0000 H   0  0  0  0  0  0  0  0  0  0  0  0
   12.9378   -2.8333    0.0000 H   0  0  0  0  0  0  0  0  0  0  0  0
    6.6902    2.0888    0.0000 H   0  0  0  0  0  0  0  0  0  0  0  0
    9.0634    0.8154    0.0000 H   0  0  0  0  0  0  0  0  0  0  0  0
   12.9275    0.2936    0.0000 H   0  0  0  0  0  0  0  0  0  0  0  0
    3.6561    2.8450    0.0000 H   0  0  0  0  0  0  0  0  0  0  0  0
   14.1741   -2.2202    0.0000 H   0  0  0  0  0  0  0  0  0  0  0  0
    6.3987    3.4377    0.0000 H   0  0  0  0  0  0  0  0  0  0  0  0
   15.7278    0.1163    0.0000 H   0  0  0  0  0  0  0  0  0  0  0  0
    4.5141    5.5165    0.0000 H   0  0  0  0  0  0  0  0  0  0  0  0
  1 14  1  0  0  0  0
  1 15  1  0  0  0  0
  1 16  1  0  0  0  0
  1 17  2  0  0  0  0
  2 62  1  0  0  0  0
  3 62  1  0  0  0  0
  4 62  1  0  0  0  0
  5 63  1  0  0  0  0
  6 63  1  0  0  0  0
  7 63  1  0  0  0  0
  8 64  1  0  0  0  0
  9 64  1  0  0  0  0
 10 64  1  0  0  0  0
 11 65  1  0  0  0  0
 12 65  1  0  0  0  0
 13 65  1  0  0  0  0
 14 20  1  0  0  0  0
 15 21  1  0  0  0  0
 16 84  1  0  0  0  0
 18 19  1  0  0  0  0
 18 20  2  0  0  0  0
 18 22  1  0  0  0  0
 19 21  2  0  0  0  0
 19 23  1  0  0  0  0
 20 24  1  0  0  0  0
 21 25  1  0  0  0  0
 22 26  1  0  0  0  0
 22 32  2  0  0  0  0
 23 27  1  0  0  0  0
 23 33  2  0  0  0  0
 24 28  2  0  0  0  0
 24 30  1  0  0  0  0
 25 29  2  0  0  0  0
 25 31  1  0  0  0  0
 26 28  1  0  0  0  0
 26 34  2  0  0  0  0
 27 29  1  0  0  0  0
 27 35  2  0  0  0  0
 28 66  1  0  0  0  0
 29 67  1  0  0  0  0
 30 40  2  0  0  0  0
 30 42  1  0  0  0  0
 31 41  2  0  0  0  0
 31 43  1  0  0  0  0
 32 36  1  0  0  0  0
 32 68  1  0  0  0  0
 33 37  1  0  0  0  0
 33 69  1  0  0  0  0
 34 38  1  0  0  0  0
 34 70  1  0  0  0  0
 35 39  1  0  0  0  0
 35 71  1  0  0  0  0
 36 38  2  0  0  0  0
 36 72  1  0  0  0  0
 37 39  2  0  0  0  0
 37 73  1  0  0  0  0
 38 78  1  0  0  0  0
 39 79  1  0  0  0  0
 40 46  1  0  0  0  0
 40 74  1  0  0  0  0
 41 47  1  0  0  0  0
 41 75  1  0  0  0  0
 42 48  2  0  0  0  0
 42 76  1  0  0  0  0
 43 49  2  0  0  0  0
 43 77  1  0  0  0  0
 44 46  2  0  0  0  0
 44 48  1  0  0  0  0
 44 50  1  0  0  0  0
 45 47  2  0  0  0  0
 45 49  1  0  0  0  0
 45 51  1  0  0  0  0
 46 80  1  0  0  0  0
 47 81  1  0  0  0  0
 48 82  1  0  0  0  0
 49 83  1  0  0  0  0
 50 52  2  0  0  0  0
 50 54  1  0  0  0  0
 51 53  2  0  0  0  0
 51 55  1  0  0  0  0
 52 56  1  0  0  0  0
 52 85  1  0  0  0  0
 53 57  1  0  0  0  0
 53 86  1  0  0  0  0
 54 58  2  0  0  0  0
 54 87  1  0  0  0  0
 55 59  2  0  0  0  0
 55 88  1  0  0  0  0
 56 60  2  0  0  0  0
 56 64  1  0  0  0  0
 57 61  2  0  0  0  0
 57 65  1  0  0  0  0
 58 60  1  0  0  0  0
 58 62  1  0  0  0  0
 59 61  1  0  0  0  0
 59 63  1  0  0  0  0
 60 89  1  0  0  0  0
 61 90  1  0  0  0  0
M  END
> <PUBCHEM_COMPOUND_CID>
46176937

> <PUBCHEM_COMPOUND_CANONICALIZED>
1

> <PUBCHEM_CACTVS_COMPLEXITY>
1510

> <PUBCHEM_CACTVS_HBOND_ACCEPTOR>
16

> <PUBCHEM_CACTVS_HBOND_DONOR>
1

> <PUBCHEM_CACTVS_ROTATABLE_BOND>
4

> <PUBCHEM_CACTVS_SUBSKEYS>
AAADceB8OcIAAAAAAAAAAAAAAAAAAAAAAAAwYMGDBIAAAADBVAAAGwAACCAADASAmBAwBsAAARCAQiBCAIACAAAgIAAIiAAECIgIJiKAERKAMAAkwBEIiAfAwPAO4AADAAAYAADAAAYAADAAAAAAAAAAAA==

> <PUBCHEM_IUPAC_OPENEYE_NAME>
10,16-bis[4-[3,5-bis(trifluoromethyl)phenyl]phenyl]-13-hydroxy-12,14-dioxa-13lambda5-phosphapentacyclo[13.8.0.02,11.03,8.018,23]tricosa-1(15),2(11),3,5,7,9,16,18,20,22-decaene 13-oxide

> <PUBCHEM_IUPAC_CAS_NAME>
10,16-bis[4-[3,5-bis(trifluoromethyl)phenyl]phenyl]-13-hydroxy-12,14-dioxa-13lambda5-phosphapentacyclo[13.8.0.02,11.03,8.018,23]tricosa-1(15),2(11),3,5,7,9,16,18,20,22-decaene 13-oxide

> <PUBCHEM_IUPAC_NAME_MARKUP>
10,16-bis[4-[3,5-bis(trifluoromethyl)phenyl]phenyl]-13-hydroxy-12,14-dioxa-13&lambda;<SUP>5</SUP>-phosphapentacyclo[13.8.0.0<SUP>2,11</SUP>.0<SUP>3,8</SUP>.0<SUP>18,23</SUP>]tricosa-1(15),2(11),3,5,7,9,16,18,20,22-decaene 13-oxide

> <PUBCHEM_IUPAC_NAME>
10,16-bis[4-[3,5-bis(trifluoromethyl)phenyl]phenyl]-13-hydroxy-12,14-dioxa-13lambda5-phosphapentacyclo[13.8.0.02,11.03,8.018,23]tricosa-1(15),2(11),3,5,7,9,16,18,20,22-decaene 13-oxide

> <PUBCHEM_IUPAC_SYSTEMATIC_NAME>
10,16-bis[4-[3,5-bis(trifluoromethyl)phenyl]phenyl]-13-oxidanyl-12,14-dioxa-13lambda5-phosphapentacyclo[13.8.0.02,11.03,8.018,23]tricosa-1(15),2(11),3,5,7,9,16,18,20,22-decaene 13-oxide

> <PUBCHEM_IUPAC_TRADITIONAL_NAME>
10,16-bis[4-[3,5-bis(trifluoromethyl)phenyl]phenyl]-13-hydroxy-12,14-dioxa-13lambda5-phosphapentacyclo[13.8.0.02,11.03,8.018,23]tricosa-1(15),2(11),3,5,7,9,16,18,20,22-decaene 13-oxide

> <PUBCHEM_IUPAC_INCHI>
InChI=1S/C48H25F12O4P/c49-45(50,51)33-17-31(18-34(23-33)46(52,53)54)25-9-13-27(14-10-25)39-21-29-5-1-3-7-37(29)41-42-38-8-4-2-6-30(38)22-40(44(42)64-65(61,62)63-43(39)41)28-15-11-26(12-16-28)32-19-35(47(55,56)57)24-36(20-32)48(58,59)60/h1-24H,(H,61,62)

> <PUBCHEM_IUPAC_INCHIKEY>
JLQGZDZCPWGOKZ-UHFFFAOYSA-N

> <PUBCHEM_XLOGP3_AA>
14.9

> <PUBCHEM_EXACT_MASS>
924.129884

> <PUBCHEM_MOLECULAR_FORMULA>
C48H25F12O4P

> <PUBCHEM_MOLECULAR_WEIGHT>
924.7

> <PUBCHEM_OPENEYE_CAN_SMILES>
C1=CC=C2C(=C1)C=C(C3=C2C4=C(C(=CC5=CC=CC=C54)C6=CC=C(C=C6)C7=CC(=CC(=C7)C(F)(F)F)C(F)(F)F)OP(=O)(O3)O)C8=CC=C(C=C8)C9=CC(=CC(=C9)C(F)(F)F)C(F)(F)F

> <PUBCHEM_OPENEYE_ISO_SMILES>
C1=CC=C2C(=C1)C=C(C3=C2C4=C(C(=CC5=CC=CC=C54)C6=CC=C(C=C6)C7=CC(=CC(=C7)C(F)(F)F)C(F)(F)F)OP(=O)(O3)O)C8=CC=C(C=C8)C9=CC(=CC(=C9)C(F)(F)F)C(F)(F)F

> <PUBCHEM_CACTVS_TPSA>
55.8

> <PUBCHEM_MONOISOTOPIC_WEIGHT>
924.129884

> <PUBCHEM_TOTAL_CHARGE>
0

> <PUBCHEM_HEAVY_ATOM_COUNT>
65

> <PUBCHEM_ATOM_DEF_STEREO_COUNT>
0

> <PUBCHEM_ATOM_UDEF_STEREO_COUNT>
0

> <PUBCHEM_BOND_DEF_STEREO_COUNT>
0

> <PUBCHEM_BOND_UDEF_STEREO_COUNT>
0

> <PUBCHEM_ISOTOPIC_ATOM_COUNT>
0

> <PUBCHEM_COMPONENT_COUNT>
1

> <PUBCHEM_CACTVS_TAUTO_COUNT>
-1

> <PUBCHEM_COORDINATE_TYPE>
1
5
255

> <PUBCHEM_BONDANNOTATIONS>
18  20  8
18  22  8
19  21  8
19  23  8
20  24  8
21  25  8
22  26  8
22  32  8
23  27  8
23  33  8
24  28  8
25  29  8
26  28  8
26  34  8
27  29  8
27  35  8
30  40  8
30  42  8
31  41  8
31  43  8
32  36  8
33  37  8
34  38  8
35  39  8
36  38  8
37  39  8
40  46  8
41  47  8
42  48  8
43  49  8
44  46  8
44  48  8
45  47  8
45  49  8
50  52  8
50  54  8
51  53  8
51  55  8
52  56  8
53  57  8
54  58  8
55  59  8
56  60  8
57  61  8
58  60  8
59  61  8

$$$$
