154996166
  -OEChem-04292123322D

 72 78  0     0  0  0  0  0  0999 V2000
    6.4362    0.4435    0.0000 P   0  0  0  0  0  0  0  0  0  0  0  0
    7.0597   -0.3383    0.0000 O   0  0  0  0  0  0  0  0  0  0  0  0
    5.4362    0.4435    0.0000 O   0  0  0  0  0  0  0  0  0  0  0  0
    7.2180    1.0670    0.0000 O   0  0  0  0  0  0  0  0  0  0  0  0
    6.4362    1.4435    0.0000 O   0  0  0  0  0  0  0  0  0  0  0  0
   10.5208    1.4421    0.0000 O   0  0  0  0  0  0  0  0  0  0  0  0
    4.6702    4.2596    0.0000 O   0  0  0  0  0  0  0  0  0  0  0  0
    5.9362   -1.7472    0.0000 C   0  0  0  0  0  0  0  0  0  0  0  0
    5.0352   -1.3133    0.0000 C   0  0  0  0  0  0  0  0  0  0  0  0
    6.8372   -1.3133    0.0000 C   0  0  0  0  0  0  0  0  0  0  0  0
    4.8127   -0.3383    0.0000 C   0  0  0  0  0  0  0  0  0  0  0  0
    5.8424   -2.7846    0.0000 C   0  0  0  0  0  0  0  0  0  0  0  0
    4.2827   -2.0335    0.0000 C   0  0  0  0  0  0  0  0  0  0  0  0
    7.7068   -1.8867    0.0000 C   0  0  0  0  0  0  0  0  0  0  0  0
    3.8222   -0.0160    0.0000 C   0  0  0  0  0  0  0  0  0  0  0  0
    6.6984   -3.3779    0.0000 C   0  0  0  0  0  0  0  0  0  0  0  0
    3.2850   -1.7341    0.0000 C   0  0  0  0  0  0  0  0  0  0  0  0
    7.6369   -2.9260    0.0000 C   0  0  0  0  0  0  0  0  0  0  0  0
    3.0532   -0.7186    0.0000 C   0  0  0  0  0  0  0  0  0  0  0  0
    8.6026   -1.4424    0.0000 C   0  0  0  0  0  0  0  0  0  0  0  0
    3.6110    0.9614    0.0000 C   0  0  0  0  0  0  0  0  0  0  0  0
    4.8542   -3.2326    0.0000 C   0  0  0  0  0  0  0  0  0  0  0  0
    3.9869   -3.0774    0.0000 C   0  0  0  0  0  0  0  0  0  0  0  0
    6.6257   -4.4605    0.0000 C   0  0  0  0  0  0  0  0  0  0  0  0
    2.2254   -1.9674    0.0000 C   0  0  0  0  0  0  0  0  0  0  0  0
    4.7564   -4.3132    0.0000 C   0  0  0  0  0  0  0  0  0  0  0  0
    2.8385   -3.4880    0.0000 C   0  0  0  0  0  0  0  0  0  0  0  0
    8.6658   -0.4444    0.0000 C   0  0  0  0  0  0  0  0  0  0  0  0
    4.3518    1.6331    0.0000 C   0  0  0  0  0  0  0  0  0  0  0  0
    5.6482   -4.9312    0.0000 C   0  0  0  0  0  0  0  0  0  0  0  0
    2.0000   -2.8512    0.0000 C   0  0  0  0  0  0  0  0  0  0  0  0
    9.4353   -1.9962    0.0000 C   0  0  0  0  0  0  0  0  0  0  0  0
    2.6589    1.2672    0.0000 C   0  0  0  0  0  0  0  0  0  0  0  0
    9.5617   -0.0002    0.0000 C   0  0  0  0  0  0  0  0  0  0  0  0
    4.1406    2.6105    0.0000 C   0  0  0  0  0  0  0  0  0  0  0  0
   10.3312   -1.5519    0.0000 C   0  0  0  0  0  0  0  0  0  0  0  0
    2.4476    2.2446    0.0000 C   0  0  0  0  0  0  0  0  0  0  0  0
   10.3944   -0.5539    0.0000 C   0  0  0  0  0  0  0  0  0  0  0  0
    3.1885    2.9163    0.0000 C   0  0  0  0  0  0  0  0  0  0  0  0
    9.6249    0.9978    0.0000 C   0  0  0  0  0  0  0  0  0  0  0  0
    4.8815    3.2822    0.0000 C   0  0  0  0  0  0  0  0  0  0  0  0
   10.5840    2.4401    0.0000 C   0  0  0  0  0  0  0  0  0  0  0  0
    5.4111    4.9312    0.0000 C   0  0  0  0  0  0  0  0  0  0  0  0
    8.1505   -3.2733    0.0000 H   0  0  0  0  0  0  0  0  0  0  0  0
    2.4614   -0.5336    0.0000 H   0  0  0  0  0  0  0  0  0  0  0  0
    4.3487   -2.8735    0.0000 H   0  0  0  0  0  0  0  0  0  0  0  0
    4.4398   -3.5008    0.0000 H   0  0  0  0  0  0  0  0  0  0  0  0
    7.1393   -4.8078    0.0000 H   0  0  0  0  0  0  0  0  0  0  0  0
    1.7942   -1.5218    0.0000 H   0  0  0  0  0  0  0  0  0  0  0  0
    4.1948   -4.5757    0.0000 H   0  0  0  0  0  0  0  0  0  0  0  0
    2.7440   -4.1007    0.0000 H   0  0  0  0  0  0  0  0  0  0  0  0
    8.1496   -0.1011    0.0000 H   0  0  0  0  0  0  0  0  0  0  0  0
    4.9421    1.4435    0.0000 H   0  0  0  0  0  0  0  0  0  0  0  0
    5.5994   -5.5493    0.0000 H   0  0  0  0  0  0  0  0  0  0  0  0
    1.4146   -3.0556    0.0000 H   0  0  0  0  0  0  0  0  0  0  0  0
    9.3962   -2.6149    0.0000 H   0  0  0  0  0  0  0  0  0  0  0  0
    2.1995    0.8508    0.0000 H   0  0  0  0  0  0  0  0  0  0  0  0
   10.8475   -1.8952    0.0000 H   0  0  0  0  0  0  0  0  0  0  0  0
    1.8573    2.4342    0.0000 H   0  0  0  0  0  0  0  0  0  0  0  0
   10.9499   -0.2784    0.0000 H   0  0  0  0  0  0  0  0  0  0  0  0
    3.0576    3.5223    0.0000 H   0  0  0  0  0  0  0  0  0  0  0  0
    7.1256    1.6800    0.0000 H   0  0  0  0  0  0  0  0  0  0  0  0
    9.4501    1.5927    0.0000 H   0  0  0  0  0  0  0  0  0  0  0  0
    9.0088    0.9290    0.0000 H   0  0  0  0  0  0  0  0  0  0  0  0
    5.2118    2.7575    0.0000 H   0  0  0  0  0  0  0  0  0  0  0  0
    5.4555    3.5164    0.0000 H   0  0  0  0  0  0  0  0  0  0  0  0
   11.2028    2.4009    0.0000 H   0  0  0  0  0  0  0  0  0  0  0  0
   10.6232    3.0589    0.0000 H   0  0  0  0  0  0  0  0  0  0  0  0
    9.9652    2.4793    0.0000 H   0  0  0  0  0  0  0  0  0  0  0  0
    5.8275    4.4719    0.0000 H   0  0  0  0  0  0  0  0  0  0  0  0
    5.8704    5.3477    0.0000 H   0  0  0  0  0  0  0  0  0  0  0  0
    4.9947    5.3906    0.0000 H   0  0  0  0  0  0  0  0  0  0  0  0
  1  2  1  0  0  0  0
  1  3  1  0  0  0  0
  1  4  1  0  0  0  0
  1  5  2  0  0  0  0
  2 10  1  0  0  0  0
  3 11  1  0  0  0  0
  4 62  1  0  0  0  0
  6 40  1  0  0  0  0
  6 42  1  0  0  0  0
  7 41  1  0  0  0  0
  7 43  1  0  0  0  0
  8  9  1  0  0  0  0
  8 10  2  0  0  0  0
  8 12  1  0  0  0  0
  9 11  2  0  0  0  0
  9 13  1  0  0  0  0
 10 14  1  0  0  0  0
 11 15  1  0  0  0  0
 12 16  1  0  0  0  0
 12 22  2  0  0  0  0
 13 17  1  0  0  0  0
 13 23  2  0  0  0  0
 14 18  2  0  0  0  0
 14 20  1  0  0  0  0
 15 19  2  0  0  0  0
 15 21  1  0  0  0  0
 16 18  1  0  0  0  0
 16 24  2  0  0  0  0
 17 19  1  0  0  0  0
 17 25  2  0  0  0  0
 18 44  1  0  0  0  0
 19 45  1  0  0  0  0
 20 28  1  0  0  0  0
 20 32  2  0  0  0  0
 21 29  1  0  0  0  0
 21 33  2  0  0  0  0
 22 26  1  0  0  0  0
 22 46  1  0  0  0  0
 23 27  1  0  0  0  0
 23 47  1  0  0  0  0
 24 30  1  0  0  0  0
 24 48  1  0  0  0  0
 25 31  1  0  0  0  0
 25 49  1  0  0  0  0
 26 30  2  0  0  0  0
 26 50  1  0  0  0  0
 27 31  2  0  0  0  0
 27 51  1  0  0  0  0
 28 34  2  0  0  0  0
 28 52  1  0  0  0  0
 29 35  2  0  0  0  0
 29 53  1  0  0  0  0
 30 54  1  0  0  0  0
 31 55  1  0  0  0  0
 32 36  1  0  0  0  0
 32 56  1  0  0  0  0
 33 37  1  0  0  0  0
 33 57  1  0  0  0  0
 34 38  1  0  0  0  0
 34 40  1  0  0  0  0
 35 39  1  0  0  0  0
 35 41  1  0  0  0  0
 36 38  2  0  0  0  0
 36 58  1  0  0  0  0
 37 39  2  0  0  0  0
 37 59  1  0  0  0  0
 38 60  1  0  0  0  0
 39 61  1  0  0  0  0
 40 63  1  0  0  0  0
 40 64  1  0  0  0  0
 41 65  1  0  0  0  0
 41 66  1  0  0  0  0
 42 67  1  0  0  0  0
 42 68  1  0  0  0  0
 42 69  1  0  0  0  0
 43 70  1  0  0  0  0
 43 71  1  0  0  0  0
 43 72  1  0  0  0  0
M  END
> <PUBCHEM_COMPOUND_CID>
154996166

> <PUBCHEM_COMPOUND_CANONICALIZED>
1

> <PUBCHEM_CACTVS_COMPLEXITY>
903

> <PUBCHEM_CACTVS_HBOND_ACCEPTOR>
6

> <PUBCHEM_CACTVS_HBOND_DONOR>
1

> <PUBCHEM_CACTVS_ROTATABLE_BOND>
6

> <PUBCHEM_CACTVS_SUBSKEYS>
AAADceB8OAIAAAAAAAAAAAAAAAAAAAAAAAAwYMGDBIAAAADBVAAAGgAACCAADASgmAIyBsAABRCAQiBCAIACAAAgIAAIiAAECIgIJiKAMRqAMAAkwBEIqAfAwPAO4AADAAAYAADAAAYAADAAAAAAAAAAAA==

> <PUBCHEM_IUPAC_OPENEYE_NAME>
13-hydroxy-10,16-bis[3-(methoxymethyl)phenyl]-12,14-dioxa-13lambda5-phosphapentacyclo[13.8.0.02,11.03,8.018,23]tricosa-1(15),2(11),3,5,7,9,16,18,20,22-decaene 13-oxide

> <PUBCHEM_IUPAC_CAS_NAME>
13-hydroxy-10,16-bis[3-(methoxymethyl)phenyl]-12,14-dioxa-13lambda5-phosphapentacyclo[13.8.0.02,11.03,8.018,23]tricosa-1(15),2(11),3,5,7,9,16,18,20,22-decaene 13-oxide

> <PUBCHEM_IUPAC_NAME_MARKUP>
13-hydroxy-10,16-bis[3-(methoxymethyl)phenyl]-12,14-dioxa-13&lambda;<SUP>5</SUP>-phosphapentacyclo[13.8.0.0<SUP>2,11</SUP>.0<SUP>3,8</SUP>.0<SUP>18,23</SUP>]tricosa-1(15),2(11),3,5,7,9,16,18,20,22-decaene 13-oxide

> <PUBCHEM_IUPAC_NAME>
13-hydroxy-10,16-bis[3-(methoxymethyl)phenyl]-12,14-dioxa-13lambda5-phosphapentacyclo[13.8.0.02,11.03,8.018,23]tricosa-1(15),2(11),3,5,7,9,16,18,20,22-decaene 13-oxide

> <PUBCHEM_IUPAC_SYSTEMATIC_NAME>
10,16-bis[3-(methoxymethyl)phenyl]-13-oxidanyl-12,14-dioxa-13lambda5-phosphapentacyclo[13.8.0.02,11.03,8.018,23]tricosa-1(15),2(11),3,5,7,9,16,18,20,22-decaene 13-oxide

> <PUBCHEM_IUPAC_TRADITIONAL_NAME>
13-hydroxy-10,16-bis[3-(methoxymethyl)phenyl]-12,14-dioxa-13lambda5-phosphapentacyclo[13.8.0.02,11.03,8.018,23]tricosa-1(15),2(11),3,5,7,9,16,18,20,22-decaene 13-oxide

> <PUBCHEM_IUPAC_INCHI>
InChI=1S/C36H29O6P/c1-39-21-23-9-7-13-25(17-23)31-19-27-11-3-5-15-29(27)33-34-30-16-6-4-12-28(30)20-32(26-14-8-10-24(18-26)22-40-2)36(34)42-43(37,38)41-35(31)33/h3-20H,21-22H2,1-2H3,(H,37,38)

> <PUBCHEM_IUPAC_INCHIKEY>
QLYAPYUHCPSZTM-UHFFFAOYSA-N

> <PUBCHEM_XLOGP3_AA>
7.4

> <PUBCHEM_EXACT_MASS>
588.170176

> <PUBCHEM_MOLECULAR_FORMULA>
C36H29O6P

> <PUBCHEM_MOLECULAR_WEIGHT>
588.6

> <PUBCHEM_OPENEYE_CAN_SMILES>
COCC1=CC(=CC=C1)C2=CC3=CC=CC=C3C4=C2OP(=O)(OC5=C4C6=CC=CC=C6C=C5C7=CC=CC(=C7)COC)O

> <PUBCHEM_OPENEYE_ISO_SMILES>
COCC1=CC(=CC=C1)C2=CC3=CC=CC=C3C4=C2OP(=O)(OC5=C4C6=CC=CC=C6C=C5C7=CC=CC(=C7)COC)O

> <PUBCHEM_CACTVS_TPSA>
74.2

> <PUBCHEM_MONOISOTOPIC_WEIGHT>
588.170176

> <PUBCHEM_TOTAL_CHARGE>
0

> <PUBCHEM_HEAVY_ATOM_COUNT>
43

> <PUBCHEM_ATOM_DEF_STEREO_COUNT>
0

> <PUBCHEM_ATOM_UDEF_STEREO_COUNT>
0

> <PUBCHEM_BOND_DEF_STEREO_COUNT>
0

> <PUBCHEM_BOND_UDEF_STEREO_COUNT>
0

> <PUBCHEM_ISOTOPIC_ATOM_COUNT>
0

> <PUBCHEM_COMPONENT_COUNT>
1

> <PUBCHEM_CACTVS_TAUTO_COUNT>
-1

> <PUBCHEM_COORDINATE_TYPE>
1
5
255

> <PUBCHEM_BONDANNOTATIONS>
10  14  8
11  15  8
12  16  8
12  22  8
13  17  8
13  23  8
14  18  8
15  19  8
16  18  8
16  24  8
17  19  8
17  25  8
20  28  8
20  32  8
21  29  8
21  33  8
22  26  8
23  27  8
24  30  8
25  31  8
26  30  8
27  31  8
28  34  8
29  35  8
32  36  8
33  37  8
34  38  8
35  39  8
36  38  8
37  39  8
8  10  8
8  12  8
9  11  8
9  13  8

$$$$
