10305529
  -OEChem-04302101402D

 82 92  0     0  0  0  0  0  0999 V2000
    7.7524    1.3221    0.0000 P   0  0  0  0  0  0  0  0  0  0  0  0
    8.3758    0.5402    0.0000 O   0  0  0  0  0  0  0  0  0  0  0  0
    6.7524    1.3221    0.0000 O   0  0  0  0  0  0  0  0  0  0  0  0
    7.7524    2.3221    0.0000 O   0  0  0  0  0  0  0  0  0  0  0  0
    8.5342    1.9456    0.0000 O   0  0  0  0  0  0  0  0  0  0  0  0
    7.2524   -0.8686    0.0000 C   0  0  0  0  0  0  0  0  0  0  0  0
    6.3514   -0.4347    0.0000 C   0  0  0  0  0  0  0  0  0  0  0  0
    8.1533   -0.4347    0.0000 C   0  0  0  0  0  0  0  0  0  0  0  0
    6.1289    0.5402    0.0000 C   0  0  0  0  0  0  0  0  0  0  0  0
    9.0229   -1.0081    0.0000 C   0  0  0  0  0  0  0  0  0  0  0  0
    5.1384    0.8626    0.0000 C   0  0  0  0  0  0  0  0  0  0  0  0
    7.1585   -1.9060    0.0000 C   0  0  0  0  0  0  0  0  0  0  0  0
    5.5988   -1.1549    0.0000 C   0  0  0  0  0  0  0  0  0  0  0  0
    9.9188   -0.5638    0.0000 C   0  0  0  0  0  0  0  0  0  0  0  0
    4.9271    1.8400    0.0000 C   0  0  0  0  0  0  0  0  0  0  0  0
    8.0146   -2.4994    0.0000 C   0  0  0  0  0  0  0  0  0  0  0  0
    4.6011   -0.8555    0.0000 C   0  0  0  0  0  0  0  0  0  0  0  0
    8.9531   -2.0474    0.0000 C   0  0  0  0  0  0  0  0  0  0  0  0
    4.3694    0.1600    0.0000 C   0  0  0  0  0  0  0  0  0  0  0  0
    9.9820    0.4342    0.0000 C   0  0  0  0  0  0  0  0  0  0  0  0
    3.9750    2.1458    0.0000 C   0  0  0  0  0  0  0  0  0  0  0  0
   10.7515   -1.1176    0.0000 C   0  0  0  0  0  0  0  0  0  0  0  0
    5.6680    2.5117    0.0000 C   0  0  0  0  0  0  0  0  0  0  0  0
    6.5267   -2.7881    0.0000 C   0  0  0  0  0  0  0  0  0  0  0  0
    5.8646   -2.2068    0.0000 C   0  0  0  0  0  0  0  0  0  0  0  0
   10.8779    0.8784    0.0000 C   0  0  0  0  0  0  0  0  0  0  0  0
    3.7638    3.1232    0.0000 C   0  0  0  0  0  0  0  0  0  0  0  0
   11.6474   -0.6733    0.0000 C   0  0  0  0  0  0  0  0  0  0  0  0
    5.4568    3.4891    0.0000 C   0  0  0  0  0  0  0  0  0  0  0  0
    8.4929   -3.4732    0.0000 C   0  0  0  0  0  0  0  0  0  0  0  0
    3.8001   -1.5874    0.0000 C   0  0  0  0  0  0  0  0  0  0  0  0
   11.7106    0.3247    0.0000 C   0  0  0  0  0  0  0  0  0  0  0  0
    4.5047    3.7949    0.0000 C   0  0  0  0  0  0  0  0  0  0  0  0
    9.1058    0.9975    0.0000 C   0  0  0  0  0  0  0  0  0  0  0  0
    3.2142    1.4344    0.0000 C   0  0  0  0  0  0  0  0  0  0  0  0
   10.6696   -2.1560    0.0000 C   0  0  0  0  0  0  0  0  0  0  0  0
    6.6547    2.1779    0.0000 C   0  0  0  0  0  0  0  0  0  0  0  0
    6.9217   -3.9419    0.0000 C   0  0  0  0  0  0  0  0  0  0  0  0
    5.0808   -2.9570    0.0000 C   0  0  0  0  0  0  0  0  0  0  0  0
    7.9423   -4.2005    0.0000 C   0  0  0  0  0  0  0  0  0  0  0  0
    4.0415   -2.6451    0.0000 C   0  0  0  0  0  0  0  0  0  0  0  0
   10.9597    1.9168    0.0000 C   0  0  0  0  0  0  0  0  0  0  0  0
    2.7771    3.4570    0.0000 C   0  0  0  0  0  0  0  0  0  0  0  0
   12.5235   -1.2366    0.0000 C   0  0  0  0  0  0  0  0  0  0  0  0
    6.2176    4.2005    0.0000 C   0  0  0  0  0  0  0  0  0  0  0  0
    9.1636    2.0375    0.0000 C   0  0  0  0  0  0  0  0  0  0  0  0
    2.2200    1.7452    0.0000 C   0  0  0  0  0  0  0  0  0  0  0  0
   11.5325   -2.7394    0.0000 C   0  0  0  0  0  0  0  0  0  0  0  0
    7.4318    2.8715    0.0000 C   0  0  0  0  0  0  0  0  0  0  0  0
   10.0968    2.5003    0.0000 C   0  0  0  0  0  0  0  0  0  0  0  0
    2.0000    2.7634    0.0000 C   0  0  0  0  0  0  0  0  0  0  0  0
   12.4657   -2.2767    0.0000 C   0  0  0  0  0  0  0  0  0  0  0  0
    7.2118    3.8897    0.0000 C   0  0  0  0  0  0  0  0  0  0  0  0
    9.4667   -2.3947    0.0000 H   0  0  0  0  0  0  0  0  0  0  0  0
    3.7776    0.3450    0.0000 H   0  0  0  0  0  0  0  0  0  0  0  0
    5.9133   -2.6979    0.0000 H   0  0  0  0  0  0  0  0  0  0  0  0
    6.4605   -2.3781    0.0000 H   0  0  0  0  0  0  0  0  0  0  0  0
    9.1100   -3.5325    0.0000 H   0  0  0  0  0  0  0  0  0  0  0  0
    3.2084   -1.4023    0.0000 H   0  0  0  0  0  0  0  0  0  0  0  0
   12.2660    0.6001    0.0000 H   0  0  0  0  0  0  0  0  0  0  0  0
    4.3737    4.4009    0.0000 H   0  0  0  0  0  0  0  0  0  0  0  0
    8.5536    0.7156    0.0000 H   0  0  0  0  0  0  0  0  0  0  0  0
    3.3522    0.8299    0.0000 H   0  0  0  0  0  0  0  0  0  0  0  0
   10.1110   -2.4250    0.0000 H   0  0  0  0  0  0  0  0  0  0  0  0
    6.7786    1.5704    0.0000 H   0  0  0  0  0  0  0  0  0  0  0  0
    6.5016   -4.3979    0.0000 H   0  0  0  0  0  0  0  0  0  0  0  0
    5.2257   -3.5598    0.0000 H   0  0  0  0  0  0  0  0  0  0  0  0
    8.1476   -4.7856    0.0000 H   0  0  0  0  0  0  0  0  0  0  0  0
    3.5887   -3.0686    0.0000 H   0  0  0  0  0  0  0  0  0  0  0  0
   11.5183    2.1858    0.0000 H   0  0  0  0  0  0  0  0  0  0  0  0
    2.6531    4.0645    0.0000 H   0  0  0  0  0  0  0  0  0  0  0  0
   13.0758   -0.9548    0.0000 H   0  0  0  0  0  0  0  0  0  0  0  0
    6.0796    4.8050    0.0000 H   0  0  0  0  0  0  0  0  0  0  0  0
    8.6460    2.3788    0.0000 H   0  0  0  0  0  0  0  0  0  0  0  0
    1.7623    1.3270    0.0000 H   0  0  0  0  0  0  0  0  0  0  0  0
   11.4910   -3.3580    0.0000 H   0  0  0  0  0  0  0  0  0  0  0  0
    8.0214    2.6797    0.0000 H   0  0  0  0  0  0  0  0  0  0  0  0
   10.1384    3.1189    0.0000 H   0  0  0  0  0  0  0  0  0  0  0  0
    1.4104    2.9552    0.0000 H   0  0  0  0  0  0  0  0  0  0  0  0
   12.9833   -2.6180    0.0000 H   0  0  0  0  0  0  0  0  0  0  0  0
    7.6695    4.3079    0.0000 H   0  0  0  0  0  0  0  0  0  0  0  0
    8.2893    2.6321    0.0000 H   0  0  0  0  0  0  0  0  0  0  0  0
  1  2  1  0  0  0  0
  1  3  1  0  0  0  0
  1  4  1  0  0  0  0
  1  5  2  0  0  0  0
  2  8  1  0  0  0  0
  3  9  1  0  0  0  0
  4 82  1  0  0  0  0
  6  7  1  0  0  0  0
  6  8  2  0  0  0  0
  6 12  1  0  0  0  0
  7  9  2  0  0  0  0
  7 13  1  0  0  0  0
  8 10  1  0  0  0  0
  9 11  1  0  0  0  0
 10 14  1  0  0  0  0
 10 18  2  0  0  0  0
 11 15  1  0  0  0  0
 11 19  2  0  0  0  0
 12 16  1  0  0  0  0
 12 24  2  0  0  0  0
 13 17  1  0  0  0  0
 13 25  2  0  0  0  0
 14 20  2  0  0  0  0
 14 22  1  0  0  0  0
 15 21  2  0  0  0  0
 15 23  1  0  0  0  0
 16 18  1  0  0  0  0
 16 30  2  0  0  0  0
 17 19  1  0  0  0  0
 17 31  2  0  0  0  0
 18 54  1  0  0  0  0
 19 55  1  0  0  0  0
 20 26  1  0  0  0  0
 20 34  1  0  0  0  0
 21 27  1  0  0  0  0
 21 35  1  0  0  0  0
 22 28  1  0  0  0  0
 22 36  2  0  0  0  0
 23 29  1  0  0  0  0
 23 37  2  0  0  0  0
 24 38  1  0  0  0  0
 24 56  1  0  0  0  0
 25 39  1  0  0  0  0
 25 57  1  0  0  0  0
 26 32  2  0  0  0  0
 26 42  1  0  0  0  0
 27 33  2  0  0  0  0
 27 43  1  0  0  0  0
 28 32  1  0  0  0  0
 28 44  2  0  0  0  0
 29 33  1  0  0  0  0
 29 45  2  0  0  0  0
 30 40  1  0  0  0  0
 30 58  1  0  0  0  0
 31 41  1  0  0  0  0
 31 59  1  0  0  0  0
 32 60  1  0  0  0  0
 33 61  1  0  0  0  0
 34 46  2  0  0  0  0
 34 62  1  0  0  0  0
 35 47  2  0  0  0  0
 35 63  1  0  0  0  0
 36 48  1  0  0  0  0
 36 64  1  0  0  0  0
 37 49  1  0  0  0  0
 37 65  1  0  0  0  0
 38 40  2  0  0  0  0
 38 66  1  0  0  0  0
 39 41  2  0  0  0  0
 39 67  1  0  0  0  0
 40 68  1  0  0  0  0
 41 69  1  0  0  0  0
 42 50  2  0  0  0  0
 42 70  1  0  0  0  0
 43 51  2  0  0  0  0
 43 71  1  0  0  0  0
 44 52  1  0  0  0  0
 44 72  1  0  0  0  0
 45 53  1  0  0  0  0
 45 73  1  0  0  0  0
 46 50  1  0  0  0  0
 46 74  1  0  0  0  0
 47 51  1  0  0  0  0
 47 75  1  0  0  0  0
 48 52  2  0  0  0  0
 48 76  1  0  0  0  0
 49 53  2  0  0  0  0
 49 77  1  0  0  0  0
 50 78  1  0  0  0  0
 51 79  1  0  0  0  0
 52 80  1  0  0  0  0
 53 81  1  0  0  0  0
M  END
> <PUBCHEM_COMPOUND_CID>
10305529

> <PUBCHEM_COMPOUND_CANONICALIZED>
1

> <PUBCHEM_CACTVS_COMPLEXITY>
1210

> <PUBCHEM_CACTVS_HBOND_ACCEPTOR>
4

> <PUBCHEM_CACTVS_HBOND_DONOR>
1

> <PUBCHEM_CACTVS_ROTATABLE_BOND>
2

> <PUBCHEM_CACTVS_SUBSKEYS>
AAADceB8OAIAAAAAAAAAAAAAAAAAAAAAAAAwYMGDBIAAAADBVAAAGgAACCAADASAmAAwBsAAARCAQiBCAIACAAAgIAAIiAAECIgIJiKAERKAMAAkwBEIiAfAwPAO4AADAAAYAADAAAYAADAAAAAAAAAAAA==

> <PUBCHEM_IUPAC_OPENEYE_NAME>
10,16-bis(9-anthryl)-13-hydroxy-12,14-dioxa-13lambda5-phosphapentacyclo[13.8.0.02,11.03,8.018,23]tricosa-1(15),2(11),3,5,7,9,16,18,20,22-decaene 13-oxide

> <PUBCHEM_IUPAC_CAS_NAME>
10,16-bis(9-anthracenyl)-13-hydroxy-12,14-dioxa-13lambda5-phosphapentacyclo[13.8.0.02,11.03,8.018,23]tricosa-1(15),2(11),3,5,7,9,16,18,20,22-decaene 13-oxide

> <PUBCHEM_IUPAC_NAME_MARKUP>
10,16-di(anthracen-9-yl)-13-hydroxy-12,14-dioxa-13&lambda;<SUP>5</SUP>-phosphapentacyclo[13.8.0.0<SUP>2,11</SUP>.0<SUP>3,8</SUP>.0<SUP>18,23</SUP>]tricosa-1(15),2(11),3,5,7,9,16,18,20,22-decaene 13-oxide

> <PUBCHEM_IUPAC_NAME>
10,16-di(anthracen-9-yl)-13-hydroxy-12,14-dioxa-13lambda5-phosphapentacyclo[13.8.0.02,11.03,8.018,23]tricosa-1(15),2(11),3,5,7,9,16,18,20,22-decaene 13-oxide

> <PUBCHEM_IUPAC_SYSTEMATIC_NAME>
10,16-di(anthracen-9-yl)-13-oxidanyl-12,14-dioxa-13lambda5-phosphapentacyclo[13.8.0.02,11.03,8.018,23]tricosa-1(15),2(11),3,5,7,9,16,18,20,22-decaene 13-oxide

> <PUBCHEM_IUPAC_TRADITIONAL_NAME>
10,16-bis(9-anthryl)-13-hydroxy-12,14-dioxa-13lambda5-phosphapentacyclo[13.8.0.02,11.03,8.018,23]tricosa-1(15),2(11),3,5,7,9,16,18,20,22-decaene 13-oxide

> <PUBCHEM_IUPAC_INCHI>
InChI=1S/C48H29O4P/c49-53(50)51-47-41(43-35-19-7-1-13-29(35)25-30-14-2-8-20-36(30)43)27-33-17-5-11-23-39(33)45(47)46-40-24-12-6-18-34(40)28-42(48(46)52-53)44-37-21-9-3-15-31(37)26-32-16-4-10-22-38(32)44/h1-28H,(H,49,50)

> <PUBCHEM_IUPAC_INCHIKEY>
QYJHYRSRVCOHMY-UHFFFAOYSA-N

> <PUBCHEM_XLOGP3_AA>
13.1

> <PUBCHEM_EXACT_MASS>
700.180346

> <PUBCHEM_MOLECULAR_FORMULA>
C48H29O4P

> <PUBCHEM_MOLECULAR_WEIGHT>
700.7

> <PUBCHEM_OPENEYE_CAN_SMILES>
C1=CC=C2C(=C1)C=C3C=CC=CC3=C2C4=CC5=CC=CC=C5C6=C4OP(=O)(OC7=C6C8=CC=CC=C8C=C7C9=C1C=CC=CC1=CC1=CC=CC=C19)O

> <PUBCHEM_OPENEYE_ISO_SMILES>
C1=CC=C2C(=C1)C=C3C=CC=CC3=C2C4=CC5=CC=CC=C5C6=C4OP(=O)(OC7=C6C8=CC=CC=C8C=C7C9=C1C=CC=CC1=CC1=CC=CC=C19)O

> <PUBCHEM_CACTVS_TPSA>
55.8

> <PUBCHEM_MONOISOTOPIC_WEIGHT>
700.180346

> <PUBCHEM_TOTAL_CHARGE>
0

> <PUBCHEM_HEAVY_ATOM_COUNT>
53

> <PUBCHEM_ATOM_DEF_STEREO_COUNT>
0

> <PUBCHEM_ATOM_UDEF_STEREO_COUNT>
0

> <PUBCHEM_BOND_DEF_STEREO_COUNT>
0

> <PUBCHEM_BOND_UDEF_STEREO_COUNT>
0

> <PUBCHEM_ISOTOPIC_ATOM_COUNT>
0

> <PUBCHEM_COMPONENT_COUNT>
1

> <PUBCHEM_CACTVS_TAUTO_COUNT>
-1

> <PUBCHEM_COORDINATE_TYPE>
1
5
255

> <PUBCHEM_BONDANNOTATIONS>
10  18  8
11  19  8
12  16  8
12  24  8
13  17  8
13  25  8
14  20  8
14  22  8
15  21  8
15  23  8
16  18  8
16  30  8
17  19  8
17  31  8
20  26  8
20  34  8
21  27  8
21  35  8
22  28  8
22  36  8
23  29  8
23  37  8
24  38  8
25  39  8
26  32  8
26  42  8
27  33  8
27  43  8
28  32  8
28  44  8
29  33  8
29  45  8
30  40  8
31  41  8
34  46  8
35  47  8
36  48  8
37  49  8
38  40  8
39  41  8
42  50  8
43  51  8
44  52  8
45  53  8
46  50  8
47  51  8
48  52  8
49  53  8
6  12  8
6  8  8
7  13  8
7  9  8
8  10  8
9  11  8

$$$$
