154996145
  -OEChem-04302101052D

 98108  0     0  0  0  0  0  0999 V2000
    9.9750    2.2914    0.0000 P   0  0  0  0  0  0  0  0  0  0  0  0
   10.5984    1.5095    0.0000 O   0  0  0  0  0  0  0  0  0  0  0  0
    8.9750    2.2914    0.0000 O   0  0  0  0  0  0  0  0  0  0  0  0
    9.9750    3.2914    0.0000 O   0  0  0  0  0  0  0  0  0  0  0  0
   10.7568    2.9148    0.0000 O   0  0  0  0  0  0  0  0  0  0  0  0
    9.3811   -0.9367    0.0000 C   0  0  0  0  0  0  0  0  0  0  0  0
    7.8214   -0.1856    0.0000 C   0  0  0  0  0  0  0  0  0  0  0  0
    9.4750    0.1007    0.0000 C   0  0  0  0  0  0  0  0  0  0  0  0
    8.5740    0.5346    0.0000 C   0  0  0  0  0  0  0  0  0  0  0  0
    8.7493   -1.8188    0.0000 C   0  0  0  0  0  0  0  0  0  0  0  0
    8.0873   -1.2375    0.0000 C   0  0  0  0  0  0  0  0  0  0  0  0
   10.2372   -1.5301    0.0000 C   0  0  0  0  0  0  0  0  0  0  0  0
    6.8237    0.1138    0.0000 C   0  0  0  0  0  0  0  0  0  0  0  0
    9.1443   -2.9726    0.0000 C   0  0  0  0  0  0  0  0  0  0  0  0
    7.3034   -1.9877    0.0000 C   0  0  0  0  0  0  0  0  0  0  0  0
   10.7155   -2.5040    0.0000 C   0  0  0  0  0  0  0  0  0  0  0  0
    6.0227   -0.6181    0.0000 C   0  0  0  0  0  0  0  0  0  0  0  0
   10.1649   -3.2312    0.0000 C   0  0  0  0  0  0  0  0  0  0  0  0
    6.2642   -1.6759    0.0000 C   0  0  0  0  0  0  0  0  0  0  0  0
   10.3759    0.5346    0.0000 C   0  0  0  0  0  0  0  0  0  0  0  0
    8.3515    1.5095    0.0000 C   0  0  0  0  0  0  0  0  0  0  0  0
   11.2455   -0.0388    0.0000 C   0  0  0  0  0  0  0  0  0  0  0  0
    7.3610    1.8318    0.0000 C   0  0  0  0  0  0  0  0  0  0  0  0
   11.1757   -1.0781    0.0000 C   0  0  0  0  0  0  0  0  0  0  0  0
    6.5920    1.1293    0.0000 C   0  0  0  0  0  0  0  0  0  0  0  0
   12.1414    0.4054    0.0000 C   0  0  0  0  0  0  0  0  0  0  0  0
    7.1497    2.8093    0.0000 C   0  0  0  0  0  0  0  0  0  0  0  0
   12.9741   -0.1483    0.0000 C   0  0  0  0  0  0  0  0  0  0  0  0
    6.1976    3.1151    0.0000 C   0  0  0  0  0  0  0  0  0  0  0  0
   12.2046    1.4034    0.0000 C   0  0  0  0  0  0  0  0  0  0  0  0
    7.8906    3.4809    0.0000 C   0  0  0  0  0  0  0  0  0  0  0  0
   12.9109   -1.1463    0.0000 C   0  0  0  0  0  0  0  0  0  0  0  0
    5.4568    2.4434    0.0000 C   0  0  0  0  0  0  0  0  0  0  0  0
   13.8700    0.2960    0.0000 C   0  0  0  0  0  0  0  0  0  0  0  0
    5.9864    4.0925    0.0000 C   0  0  0  0  0  0  0  0  0  0  0  0
   13.1005    1.8477    0.0000 C   0  0  0  0  0  0  0  0  0  0  0  0
    7.6794    4.4584    0.0000 C   0  0  0  0  0  0  0  0  0  0  0  0
   13.9332    1.2940    0.0000 C   0  0  0  0  0  0  0  0  0  0  0  0
    6.7273    4.7642    0.0000 C   0  0  0  0  0  0  0  0  0  0  0  0
   13.7436   -1.7000    0.0000 C   0  0  0  0  0  0  0  0  0  0  0  0
    4.5047    2.7492    0.0000 C   0  0  0  0  0  0  0  0  0  0  0  0
   12.0150   -1.5906    0.0000 C   0  0  0  0  0  0  0  0  0  0  0  0
    5.6680    1.4660    0.0000 C   0  0  0  0  0  0  0  0  0  0  0  0
   13.6804   -2.6980    0.0000 C   0  0  0  0  0  0  0  0  0  0  0  0
    3.7638    2.0776    0.0000 C   0  0  0  0  0  0  0  0  0  0  0  0
   11.9518   -2.5886    0.0000 C   0  0  0  0  0  0  0  0  0  0  0  0
    4.9271    0.7943    0.0000 C   0  0  0  0  0  0  0  0  0  0  0  0
   12.7845   -3.1423    0.0000 C   0  0  0  0  0  0  0  0  0  0  0  0
    3.9750    1.1001    0.0000 C   0  0  0  0  0  0  0  0  0  0  0  0
   14.5566   -3.2614    0.0000 C   0  0  0  0  0  0  0  0  0  0  0  0
    2.7771    2.4113    0.0000 C   0  0  0  0  0  0  0  0  0  0  0  0
   12.7027   -4.1807    0.0000 C   0  0  0  0  0  0  0  0  0  0  0  0
    3.2142    0.3887    0.0000 C   0  0  0  0  0  0  0  0  0  0  0  0
   14.4987   -4.3014    0.0000 C   0  0  0  0  0  0  0  0  0  0  0  0
    2.0000    1.7177    0.0000 C   0  0  0  0  0  0  0  0  0  0  0  0
   13.5656   -4.7642    0.0000 C   0  0  0  0  0  0  0  0  0  0  0  0
    2.2200    0.6996    0.0000 C   0  0  0  0  0  0  0  0  0  0  0  0
    8.3300   -1.3621    0.0000 H   0  0  0  0  0  0  0  0  0  0  0  0
    8.2164   -2.1356    0.0000 H   0  0  0  0  0  0  0  0  0  0  0  0
    8.4330   -1.7522    0.0000 H   0  0  0  0  0  0  0  0  0  0  0  0
    8.6535   -0.9850    0.0000 H   0  0  0  0  0  0  0  0  0  0  0  0
    8.5301   -3.0574    0.0000 H   0  0  0  0  0  0  0  0  0  0  0  0
    9.1099   -3.5917    0.0000 H   0  0  0  0  0  0  0  0  0  0  0  0
    7.0262   -2.5423    0.0000 H   0  0  0  0  0  0  0  0  0  0  0  0
    7.8024   -2.3556    0.0000 H   0  0  0  0  0  0  0  0  0  0  0  0
   11.1459   -2.9502    0.0000 H   0  0  0  0  0  0  0  0  0  0  0  0
   11.2230   -2.1478    0.0000 H   0  0  0  0  0  0  0  0  0  0  0  0
    5.6890   -0.0955    0.0000 H   0  0  0  0  0  0  0  0  0  0  0  0
    5.4508   -0.8574    0.0000 H   0  0  0  0  0  0  0  0  0  0  0  0
    9.9342   -3.8067    0.0000 H   0  0  0  0  0  0  0  0  0  0  0  0
   10.7046   -3.5364    0.0000 H   0  0  0  0  0  0  0  0  0  0  0  0
    5.6450   -1.7084    0.0000 H   0  0  0  0  0  0  0  0  0  0  0  0
    6.1902   -2.2914    0.0000 H   0  0  0  0  0  0  0  0  0  0  0  0
   11.6893   -1.4254    0.0000 H   0  0  0  0  0  0  0  0  0  0  0  0
    6.0002    1.3143    0.0000 H   0  0  0  0  0  0  0  0  0  0  0  0
   11.6883    1.7467    0.0000 H   0  0  0  0  0  0  0  0  0  0  0  0
    8.4809    3.2914    0.0000 H   0  0  0  0  0  0  0  0  0  0  0  0
   14.3863   -0.0473    0.0000 H   0  0  0  0  0  0  0  0  0  0  0  0
    5.3961    4.2821    0.0000 H   0  0  0  0  0  0  0  0  0  0  0  0
    9.4380    3.6014    0.0000 H   0  0  0  0  0  0  0  0  0  0  0  0
   13.1397    2.4665    0.0000 H   0  0  0  0  0  0  0  0  0  0  0  0
    8.1387    4.8748    0.0000 H   0  0  0  0  0  0  0  0  0  0  0  0
   14.4886    1.5694    0.0000 H   0  0  0  0  0  0  0  0  0  0  0  0
    6.5963    5.3702    0.0000 H   0  0  0  0  0  0  0  0  0  0  0  0
   14.2990   -1.4246    0.0000 H   0  0  0  0  0  0  0  0  0  0  0  0
    4.3737    3.3552    0.0000 H   0  0  0  0  0  0  0  0  0  0  0  0
   11.4987   -1.2473    0.0000 H   0  0  0  0  0  0  0  0  0  0  0  0
    6.2583    1.2764    0.0000 H   0  0  0  0  0  0  0  0  0  0  0  0
   11.3964   -2.8640    0.0000 H   0  0  0  0  0  0  0  0  0  0  0  0
    5.0581    0.1883    0.0000 H   0  0  0  0  0  0  0  0  0  0  0  0
   15.1088   -2.9795    0.0000 H   0  0  0  0  0  0  0  0  0  0  0  0
    2.6531    3.0188    0.0000 H   0  0  0  0  0  0  0  0  0  0  0  0
   12.1441   -4.4497    0.0000 H   0  0  0  0  0  0  0  0  0  0  0  0
    3.3522   -0.2158    0.0000 H   0  0  0  0  0  0  0  0  0  0  0  0
   15.0163   -4.6427    0.0000 H   0  0  0  0  0  0  0  0  0  0  0  0
    1.4104    1.9095    0.0000 H   0  0  0  0  0  0  0  0  0  0  0  0
   13.5240   -5.3828    0.0000 H   0  0  0  0  0  0  0  0  0  0  0  0
    1.7623    0.2814    0.0000 H   0  0  0  0  0  0  0  0  0  0  0  0
  1  2  1  0  0  0  0
  1  3  1  0  0  0  0
  1  4  1  0  0  0  0
  1  5  2  0  0  0  0
  2 20  1  0  0  0  0
  3 21  1  0  0  0  0
  4 80  1  0  0  0  0
  6  8  2  0  0  0  0
  6 10  1  0  0  0  0
  6 12  1  0  0  0  0
  7  9  2  0  0  0  0
  7 11  1  0  0  0  0
  7 13  1  0  0  0  0
  8  9  1  0  0  0  0
  8 20  1  0  0  0  0
  9 21  1  0  0  0  0
 10 14  1  0  0  0  0
 10 58  1  0  0  0  0
 10 59  1  0  0  0  0
 11 15  1  0  0  0  0
 11 60  1  0  0  0  0
 11 61  1  0  0  0  0
 12 16  1  0  0  0  0
 12 24  2  0  0  0  0
 13 17  1  0  0  0  0
 13 25  2  0  0  0  0
 14 18  1  0  0  0  0
 14 62  1  0  0  0  0
 14 63  1  0  0  0  0
 15 19  1  0  0  0  0
 15 64  1  0  0  0  0
 15 65  1  0  0  0  0
 16 18  1  0  0  0  0
 16 66  1  0  0  0  0
 16 67  1  0  0  0  0
 17 19  1  0  0  0  0
 17 68  1  0  0  0  0
 17 69  1  0  0  0  0
 18 70  1  0  0  0  0
 18 71  1  0  0  0  0
 19 72  1  0  0  0  0
 19 73  1  0  0  0  0
 20 22  2  0  0  0  0
 21 23  2  0  0  0  0
 22 24  1  0  0  0  0
 22 26  1  0  0  0  0
 23 25  1  0  0  0  0
 23 27  1  0  0  0  0
 24 74  1  0  0  0  0
 25 75  1  0  0  0  0
 26 28  1  0  0  0  0
 26 30  2  0  0  0  0
 27 29  1  0  0  0  0
 27 31  2  0  0  0  0
 28 32  1  0  0  0  0
 28 34  2  0  0  0  0
 29 33  1  0  0  0  0
 29 35  2  0  0  0  0
 30 36  1  0  0  0  0
 30 76  1  0  0  0  0
 31 37  1  0  0  0  0
 31 77  1  0  0  0  0
 32 40  2  0  0  0  0
 32 42  1  0  0  0  0
 33 41  2  0  0  0  0
 33 43  1  0  0  0  0
 34 38  1  0  0  0  0
 34 78  1  0  0  0  0
 35 39  1  0  0  0  0
 35 79  1  0  0  0  0
 36 38  2  0  0  0  0
 36 81  1  0  0  0  0
 37 39  2  0  0  0  0
 37 82  1  0  0  0  0
 38 83  1  0  0  0  0
 39 84  1  0  0  0  0
 40 44  1  0  0  0  0
 40 85  1  0  0  0  0
 41 45  1  0  0  0  0
 41 86  1  0  0  0  0
 42 46  2  0  0  0  0
 42 87  1  0  0  0  0
 43 47  2  0  0  0  0
 43 88  1  0  0  0  0
 44 48  1  0  0  0  0
 44 50  2  0  0  0  0
 45 49  1  0  0  0  0
 45 51  2  0  0  0  0
 46 48  1  0  0  0  0
 46 89  1  0  0  0  0
 47 49  1  0  0  0  0
 47 90  1  0  0  0  0
 48 52  2  0  0  0  0
 49 53  2  0  0  0  0
 50 54  1  0  0  0  0
 50 91  1  0  0  0  0
 51 55  1  0  0  0  0
 51 92  1  0  0  0  0
 52 56  1  0  0  0  0
 52 93  1  0  0  0  0
 53 57  1  0  0  0  0
 53 94  1  0  0  0  0
 54 56  2  0  0  0  0
 54 95  1  0  0  0  0
 55 57  2  0  0  0  0
 55 96  1  0  0  0  0
 56 97  1  0  0  0  0
 57 98  1  0  0  0  0
M  END
> <PUBCHEM_COMPOUND_CID>
154996145

> <PUBCHEM_COMPOUND_CANONICALIZED>
1

> <PUBCHEM_CACTVS_COMPLEXITY>
1320

> <PUBCHEM_CACTVS_HBOND_ACCEPTOR>
4

> <PUBCHEM_CACTVS_HBOND_DONOR>
1

> <PUBCHEM_CACTVS_ROTATABLE_BOND>
4

> <PUBCHEM_CACTVS_SUBSKEYS>
AAADcfB8OAIAAAAAAAAAAAAAAAAAAAAAAAAwYMGDBIAAAADBVAAAGgAACCAADASAmAAwBsAAARCAQiBCAIACAAAgIAAIiAAECIgIJiKAERKAMAAkwBEIiAfAwPAO4AADAAAYAADAAAYAADAAAAAAAAAAAA==

> <PUBCHEM_IUPAC_OPENEYE_NAME>
13-hydroxy-10,16-bis[2-(2-naphthyl)phenyl]-12,14-dioxa-13lambda5-phosphapentacyclo[13.8.0.02,11.03,8.018,23]tricosa-1(23),2,8,10,15,17-hexaene 13-oxide

> <PUBCHEM_IUPAC_CAS_NAME>
13-hydroxy-10,16-bis[2-(2-naphthalenyl)phenyl]-12,14-dioxa-13lambda5-phosphapentacyclo[13.8.0.02,11.03,8.018,23]tricosa-1(23),2,8,10,15,17-hexaene 13-oxide

> <PUBCHEM_IUPAC_NAME_MARKUP>
13-hydroxy-10,16-bis(2-naphthalen-2-ylphenyl)-12,14-dioxa-13&lambda;<SUP>5</SUP>-phosphapentacyclo[13.8.0.0<SUP>2,11</SUP>.0<SUP>3,8</SUP>.0<SUP>18,23</SUP>]tricosa-1(23),2,8,10,15,17-hexaene 13-oxide

> <PUBCHEM_IUPAC_NAME>
13-hydroxy-10,16-bis(2-naphthalen-2-ylphenyl)-12,14-dioxa-13lambda5-phosphapentacyclo[13.8.0.02,11.03,8.018,23]tricosa-1(23),2,8,10,15,17-hexaene 13-oxide

> <PUBCHEM_IUPAC_SYSTEMATIC_NAME>
10,16-bis(2-naphthalen-2-ylphenyl)-13-oxidanyl-12,14-dioxa-13lambda5-phosphapentacyclo[13.8.0.02,11.03,8.018,23]tricosa-1(23),2,8,10,15,17-hexaene 13-oxide

> <PUBCHEM_IUPAC_TRADITIONAL_NAME>
13-hydroxy-10,16-bis[2-(2-naphthyl)phenyl]-12,14-dioxa-13lambda5-phosphapentacyclo[13.8.0.02,11.03,8.018,23]tricosa-1(23),2,8,10,15,17-hexaene 13-oxide

> <PUBCHEM_IUPAC_INCHI>
InChI=1S/C52H41O4P/c53-57(54)55-51-47(45-23-11-9-19-41(45)39-27-25-33-13-1-3-15-35(33)29-39)31-37-17-5-7-21-43(37)49(51)50-44-22-8-6-18-38(44)32-48(52(50)56-57)46-24-12-10-20-42(46)40-28-26-34-14-2-4-16-36(34)30-40/h1-4,9-16,19-20,23-32H,5-8,17-18,21-22H2,(H,53,54)

> <PUBCHEM_IUPAC_INCHIKEY>
MKIQQNGOFQEPHB-UHFFFAOYSA-N

> <PUBCHEM_XLOGP3_AA>
14.1

> <PUBCHEM_EXACT_MASS>
760.274247

> <PUBCHEM_MOLECULAR_FORMULA>
C52H41O4P

> <PUBCHEM_MOLECULAR_WEIGHT>
760.8

> <PUBCHEM_OPENEYE_CAN_SMILES>
C1CCC2=C3C4=C5CCCCC5=CC(=C4OP(=O)(OC3=C(C=C2C1)C6=CC=CC=C6C7=CC8=CC=CC=C8C=C7)O)C9=CC=CC=C9C1=CC2=CC=CC=C2C=C1

> <PUBCHEM_OPENEYE_ISO_SMILES>
C1CCC2=C3C4=C5CCCCC5=CC(=C4OP(=O)(OC3=C(C=C2C1)C6=CC=CC=C6C7=CC8=CC=CC=C8C=C7)O)C9=CC=CC=C9C1=CC2=CC=CC=C2C=C1

> <PUBCHEM_CACTVS_TPSA>
55.8

> <PUBCHEM_MONOISOTOPIC_WEIGHT>
760.274247

> <PUBCHEM_TOTAL_CHARGE>
0

> <PUBCHEM_HEAVY_ATOM_COUNT>
57

> <PUBCHEM_ATOM_DEF_STEREO_COUNT>
0

> <PUBCHEM_ATOM_UDEF_STEREO_COUNT>
0

> <PUBCHEM_BOND_DEF_STEREO_COUNT>
0

> <PUBCHEM_BOND_UDEF_STEREO_COUNT>
0

> <PUBCHEM_ISOTOPIC_ATOM_COUNT>
0

> <PUBCHEM_COMPONENT_COUNT>
1

> <PUBCHEM_CACTVS_TAUTO_COUNT>
-1

> <PUBCHEM_COORDINATE_TYPE>
1
5
255

> <PUBCHEM_BONDANNOTATIONS>
12  24  8
13  25  8
20  22  8
21  23  8
22  24  8
23  25  8
26  28  8
26  30  8
27  29  8
27  31  8
28  34  8
29  35  8
30  36  8
31  37  8
32  40  8
32  42  8
33  41  8
33  43  8
34  38  8
35  39  8
36  38  8
37  39  8
40  44  8
41  45  8
42  46  8
43  47  8
44  48  8
44  50  8
45  49  8
45  51  8
46  48  8
47  49  8
48  52  8
49  53  8
50  54  8
51  55  8
52  56  8
53  57  8
54  56  8
55  57  8
6  12  8
6  8  8
7  13  8
7  9  8
8  20  8
9  21  8

$$$$
