154996193
  -OEChem-04292123212D

 98106  0     0  0  0  0  0  0999 V2000
    6.6223   -0.0152    0.0000 P   0  0  0  0  0  0  0  0  0  0  0  0
    7.2458   -0.7970    0.0000 O   0  0  0  0  0  0  0  0  0  0  0  0
    5.6223   -0.0152    0.0000 O   0  0  0  0  0  0  0  0  0  0  0  0
    7.4041    0.6083    0.0000 O   0  0  0  0  0  0  0  0  0  0  0  0
    6.6223    0.9848    0.0000 O   0  0  0  0  0  0  0  0  0  0  0  0
   11.4764   -0.5683    0.0000 C   0  0  0  0  0  0  0  0  0  0  0  0
    3.1633    3.4351    0.0000 C   0  0  0  0  0  0  0  0  0  0  0  0
   12.3091   -1.1220    0.0000 C   0  0  0  0  0  0  0  0  0  0  0  0
   11.5396    0.4297    0.0000 C   0  0  0  0  0  0  0  0  0  0  0  0
    3.9042    4.1067    0.0000 C   0  0  0  0  0  0  0  0  0  0  0  0
    2.2112    3.7408    0.0000 C   0  0  0  0  0  0  0  0  0  0  0  0
    6.1223   -2.2058    0.0000 C   0  0  0  0  0  0  0  0  0  0  0  0
    5.2213   -1.7720    0.0000 C   0  0  0  0  0  0  0  0  0  0  0  0
    6.0284   -3.2432    0.0000 C   0  0  0  0  0  0  0  0  0  0  0  0
    4.4687   -2.4921    0.0000 C   0  0  0  0  0  0  0  0  0  0  0  0
   13.2050   -0.6777    0.0000 C   0  0  0  0  0  0  0  0  0  0  0  0
   12.4355    0.8740    0.0000 C   0  0  0  0  0  0  0  0  0  0  0  0
    3.6930    5.0842    0.0000 C   0  0  0  0  0  0  0  0  0  0  0  0
    2.0000    4.7183    0.0000 C   0  0  0  0  0  0  0  0  0  0  0  0
   13.2682    0.3203    0.0000 C   0  0  0  0  0  0  0  0  0  0  0  0
    2.7409    5.3899    0.0000 C   0  0  0  0  0  0  0  0  0  0  0  0
    6.8845   -3.8366    0.0000 C   0  0  0  0  0  0  0  0  0  0  0  0
    3.4710   -2.1928    0.0000 C   0  0  0  0  0  0  0  0  0  0  0  0
    5.0402   -3.6913    0.0000 C   0  0  0  0  0  0  0  0  0  0  0  0
    4.1730   -3.5360    0.0000 C   0  0  0  0  0  0  0  0  0  0  0  0
    6.8118   -4.9192    0.0000 C   0  0  0  0  0  0  0  0  0  0  0  0
    2.4114   -2.4260    0.0000 C   0  0  0  0  0  0  0  0  0  0  0  0
    4.9425   -4.7718    0.0000 C   0  0  0  0  0  0  0  0  0  0  0  0
    3.0246   -3.9467    0.0000 C   0  0  0  0  0  0  0  0  0  0  0  0
   10.5805   -1.0126    0.0000 C   0  0  0  0  0  0  0  0  0  0  0  0
    3.3746    2.4576    0.0000 C   0  0  0  0  0  0  0  0  0  0  0  0
    5.8342   -5.3899    0.0000 C   0  0  0  0  0  0  0  0  0  0  0  0
    2.1861   -3.3099    0.0000 C   0  0  0  0  0  0  0  0  0  0  0  0
    7.0232   -1.7720    0.0000 C   0  0  0  0  0  0  0  0  0  0  0  0
    4.9988   -0.7970    0.0000 C   0  0  0  0  0  0  0  0  0  0  0  0
    7.8928   -2.3454    0.0000 C   0  0  0  0  0  0  0  0  0  0  0  0
    4.0083   -0.4747    0.0000 C   0  0  0  0  0  0  0  0  0  0  0  0
    7.8230   -3.3847    0.0000 C   0  0  0  0  0  0  0  0  0  0  0  0
    3.2393   -1.1773    0.0000 C   0  0  0  0  0  0  0  0  0  0  0  0
    8.7887   -1.9011    0.0000 C   0  0  0  0  0  0  0  0  0  0  0  0
    3.7970    0.5028    0.0000 C   0  0  0  0  0  0  0  0  0  0  0  0
   10.5173   -2.0106    0.0000 C   0  0  0  0  0  0  0  0  0  0  0  0
    4.3267    2.1518    0.0000 C   0  0  0  0  0  0  0  0  0  0  0  0
    9.7478   -0.4588    0.0000 C   0  0  0  0  0  0  0  0  0  0  0  0
    2.6337    1.7860    0.0000 C   0  0  0  0  0  0  0  0  0  0  0  0
    9.6214   -2.4548    0.0000 C   0  0  0  0  0  0  0  0  0  0  0  0
    4.5379    1.1744    0.0000 C   0  0  0  0  0  0  0  0  0  0  0  0
    8.8519   -0.9031    0.0000 C   0  0  0  0  0  0  0  0  0  0  0  0
    2.8449    0.8085    0.0000 C   0  0  0  0  0  0  0  0  0  0  0  0
   11.4372   -1.1870    0.0000 H   0  0  0  0  0  0  0  0  0  0  0  0
    2.7040    3.0186    0.0000 H   0  0  0  0  0  0  0  0  0  0  0  0
   11.8813   -1.5708    0.0000 H   0  0  0  0  0  0  0  0  0  0  0  0
   12.6768   -1.6212    0.0000 H   0  0  0  0  0  0  0  0  0  0  0  0
   11.3648    1.0246    0.0000 H   0  0  0  0  0  0  0  0  0  0  0  0
   10.9234    0.3609    0.0000 H   0  0  0  0  0  0  0  0  0  0  0  0
    4.2345    3.5820    0.0000 H   0  0  0  0  0  0  0  0  0  0  0  0
    4.4783    4.3409    0.0000 H   0  0  0  0  0  0  0  0  0  0  0  0
    1.5917    3.7171    0.0000 H   0  0  0  0  0  0  0  0  0  0  0  0
    2.1270    3.1266    0.0000 H   0  0  0  0  0  0  0  0  0  0  0  0
   13.3798   -1.2726    0.0000 H   0  0  0  0  0  0  0  0  0  0  0  0
   13.8211   -0.6089    0.0000 H   0  0  0  0  0  0  0  0  0  0  0  0
   12.8632    1.3228    0.0000 H   0  0  0  0  0  0  0  0  0  0  0  0
   12.0677    1.3732    0.0000 H   0  0  0  0  0  0  0  0  0  0  0  0
    4.3125    5.1079    0.0000 H   0  0  0  0  0  0  0  0  0  0  0  0
    3.7772    5.6984    0.0000 H   0  0  0  0  0  0  0  0  0  0  0  0
    1.6697    5.2430    0.0000 H   0  0  0  0  0  0  0  0  0  0  0  0
    1.4259    4.4841    0.0000 H   0  0  0  0  0  0  0  0  0  0  0  0
   13.8707    0.1742    0.0000 H   0  0  0  0  0  0  0  0  0  0  0  0
   13.5166    0.8883    0.0000 H   0  0  0  0  0  0  0  0  0  0  0  0
    3.0301    5.9383    0.0000 H   0  0  0  0  0  0  0  0  0  0  0  0
    2.2510    5.7700    0.0000 H   0  0  0  0  0  0  0  0  0  0  0  0
    4.8846   -3.0911    0.0000 H   0  0  0  0  0  0  0  0  0  0  0  0
    4.4223   -3.7419    0.0000 H   0  0  0  0  0  0  0  0  0  0  0  0
    4.2576   -4.1502    0.0000 H   0  0  0  0  0  0  0  0  0  0  0  0
    4.7915   -3.5791    0.0000 H   0  0  0  0  0  0  0  0  0  0  0  0
    6.9812   -5.5156    0.0000 H   0  0  0  0  0  0  0  0  0  0  0  0
    7.4284   -4.8543    0.0000 H   0  0  0  0  0  0  0  0  0  0  0  0
    2.3735   -1.8072    0.0000 H   0  0  0  0  0  0  0  0  0  0  0  0
    1.7942   -2.3677    0.0000 H   0  0  0  0  0  0  0  0  0  0  0  0
    4.3437   -4.6111    0.0000 H   0  0  0  0  0  0  0  0  0  0  0  0
    4.6817   -5.3343    0.0000 H   0  0  0  0  0  0  0  0  0  0  0  0
    2.5620   -4.3595    0.0000 H   0  0  0  0  0  0  0  0  0  0  0  0
    3.3413   -4.4797    0.0000 H   0  0  0  0  0  0  0  0  0  0  0  0
    5.3990   -5.8315    0.0000 H   0  0  0  0  0  0  0  0  0  0  0  0
    6.1948   -5.8943    0.0000 H   0  0  0  0  0  0  0  0  0  0  0  0
    1.6110   -3.0783    0.0000 H   0  0  0  0  0  0  0  0  0  0  0  0
    1.8800   -3.8492    0.0000 H   0  0  0  0  0  0  0  0  0  0  0  0
    8.3366   -3.7320    0.0000 H   0  0  0  0  0  0  0  0  0  0  0  0
    2.6475   -0.9922    0.0000 H   0  0  0  0  0  0  0  0  0  0  0  0
   11.0336   -2.3539    0.0000 H   0  0  0  0  0  0  0  0  0  0  0  0
    4.7860    2.5683    0.0000 H   0  0  0  0  0  0  0  0  0  0  0  0
    9.7870    0.1599    0.0000 H   0  0  0  0  0  0  0  0  0  0  0  0
    2.0434    1.9756    0.0000 H   0  0  0  0  0  0  0  0  0  0  0  0
    9.5822   -3.0736    0.0000 H   0  0  0  0  0  0  0  0  0  0  0  0
    5.1282    0.9848    0.0000 H   0  0  0  0  0  0  0  0  0  0  0  0
    8.3356   -0.5598    0.0000 H   0  0  0  0  0  0  0  0  0  0  0  0
    2.3856    0.3921    0.0000 H   0  0  0  0  0  0  0  0  0  0  0  0
    7.3117    1.2214    0.0000 H   0  0  0  0  0  0  0  0  0  0  0  0
  1  2  1  0  0  0  0
  1  3  1  0  0  0  0
  1  4  1  0  0  0  0
  1  5  2  0  0  0  0
  2 34  1  0  0  0  0
  3 35  1  0  0  0  0
  4 98  1  0  0  0  0
  6  8  1  0  0  0  0
  6  9  1  0  0  0  0
  6 30  1  0  0  0  0
  6 50  1  0  0  0  0
  7 10  1  0  0  0  0
  7 11  1  0  0  0  0
  7 31  1  0  0  0  0
  7 51  1  0  0  0  0
  8 16  1  0  0  0  0
  8 52  1  0  0  0  0
  8 53  1  0  0  0  0
  9 17  1  0  0  0  0
  9 54  1  0  0  0  0
  9 55  1  0  0  0  0
 10 18  1  0  0  0  0
 10 56  1  0  0  0  0
 10 57  1  0  0  0  0
 11 19  1  0  0  0  0
 11 58  1  0  0  0  0
 11 59  1  0  0  0  0
 12 13  1  0  0  0  0
 12 14  2  0  0  0  0
 12 34  1  0  0  0  0
 13 15  2  0  0  0  0
 13 35  1  0  0  0  0
 14 22  1  0  0  0  0
 14 24  1  0  0  0  0
 15 23  1  0  0  0  0
 15 25  1  0  0  0  0
 16 20  1  0  0  0  0
 16 60  1  0  0  0  0
 16 61  1  0  0  0  0
 17 20  1  0  0  0  0
 17 62  1  0  0  0  0
 17 63  1  0  0  0  0
 18 21  1  0  0  0  0
 18 64  1  0  0  0  0
 18 65  1  0  0  0  0
 19 21  1  0  0  0  0
 19 66  1  0  0  0  0
 19 67  1  0  0  0  0
 20 68  1  0  0  0  0
 20 69  1  0  0  0  0
 21 70  1  0  0  0  0
 21 71  1  0  0  0  0
 22 26  1  0  0  0  0
 22 38  2  0  0  0  0
 23 27  1  0  0  0  0
 23 39  2  0  0  0  0
 24 28  1  0  0  0  0
 24 72  1  0  0  0  0
 24 73  1  0  0  0  0
 25 29  1  0  0  0  0
 25 74  1  0  0  0  0
 25 75  1  0  0  0  0
 26 32  1  0  0  0  0
 26 76  1  0  0  0  0
 26 77  1  0  0  0  0
 27 33  1  0  0  0  0
 27 78  1  0  0  0  0
 27 79  1  0  0  0  0
 28 32  1  0  0  0  0
 28 80  1  0  0  0  0
 28 81  1  0  0  0  0
 29 33  1  0  0  0  0
 29 82  1  0  0  0  0
 29 83  1  0  0  0  0
 30 42  2  0  0  0  0
 30 44  1  0  0  0  0
 31 43  2  0  0  0  0
 31 45  1  0  0  0  0
 32 84  1  0  0  0  0
 32 85  1  0  0  0  0
 33 86  1  0  0  0  0
 33 87  1  0  0  0  0
 34 36  2  0  0  0  0
 35 37  2  0  0  0  0
 36 38  1  0  0  0  0
 36 40  1  0  0  0  0
 37 39  1  0  0  0  0
 37 41  1  0  0  0  0
 38 88  1  0  0  0  0
 39 89  1  0  0  0  0
 40 46  2  0  0  0  0
 40 48  1  0  0  0  0
 41 47  2  0  0  0  0
 41 49  1  0  0  0  0
 42 46  1  0  0  0  0
 42 90  1  0  0  0  0
 43 47  1  0  0  0  0
 43 91  1  0  0  0  0
 44 48  2  0  0  0  0
 44 92  1  0  0  0  0
 45 49  2  0  0  0  0
 45 93  1  0  0  0  0
 46 94  1  0  0  0  0
 47 95  1  0  0  0  0
 48 96  1  0  0  0  0
 49 97  1  0  0  0  0
M  END
> <PUBCHEM_COMPOUND_CID>
154996193

> <PUBCHEM_COMPOUND_CANONICALIZED>
1

> <PUBCHEM_CACTVS_COMPLEXITY>
1050

> <PUBCHEM_CACTVS_HBOND_ACCEPTOR>
4

> <PUBCHEM_CACTVS_HBOND_DONOR>
1

> <PUBCHEM_CACTVS_ROTATABLE_BOND>
4

> <PUBCHEM_CACTVS_SUBSKEYS>
AAADcfB8OAIAAAAAAAAAAAAAAAAAAAAAAAAwYMGDBIAAAADBVAAAGgAACCAADQSAmAAwBoAAARCAQiBCAIACAAAgIAAIiAAECIgIJiKAERKAMAAkwBEIiAfAwPAO4AADAAAYAADAAAYAADAAAAAAAAAAAA==

> <PUBCHEM_IUPAC_OPENEYE_NAME>
10,16-bis(4-cyclohexylphenyl)-13-hydroxy-12,14-dioxa-13lambda5-phosphapentacyclo[13.8.0.02,11.03,8.018,23]tricosa-1(23),2,8,10,15,17-hexaene 13-oxide

> <PUBCHEM_IUPAC_CAS_NAME>
10,16-bis(4-cyclohexylphenyl)-13-hydroxy-12,14-dioxa-13lambda5-phosphapentacyclo[13.8.0.02,11.03,8.018,23]tricosa-1(23),2,8,10,15,17-hexaene 13-oxide

> <PUBCHEM_IUPAC_NAME_MARKUP>
10,16-bis(4-cyclohexylphenyl)-13-hydroxy-12,14-dioxa-13&lambda;<SUP>5</SUP>-phosphapentacyclo[13.8.0.0<SUP>2,11</SUP>.0<SUP>3,8</SUP>.0<SUP>18,23</SUP>]tricosa-1(23),2,8,10,15,17-hexaene 13-oxide

> <PUBCHEM_IUPAC_NAME>
10,16-bis(4-cyclohexylphenyl)-13-hydroxy-12,14-dioxa-13lambda5-phosphapentacyclo[13.8.0.02,11.03,8.018,23]tricosa-1(23),2,8,10,15,17-hexaene 13-oxide

> <PUBCHEM_IUPAC_SYSTEMATIC_NAME>
10,16-bis(4-cyclohexylphenyl)-13-oxidanyl-12,14-dioxa-13lambda5-phosphapentacyclo[13.8.0.02,11.03,8.018,23]tricosa-1(23),2,8,10,15,17-hexaene 13-oxide

> <PUBCHEM_IUPAC_TRADITIONAL_NAME>
10,16-bis(4-cyclohexylphenyl)-13-hydroxy-12,14-dioxa-13lambda5-phosphapentacyclo[13.8.0.02,11.03,8.018,23]tricosa-1(23),2,8,10,15,17-hexaene 13-oxide

> <PUBCHEM_IUPAC_INCHI>
InChI=1S/C44H49O4P/c45-49(46)47-43-39(33-23-19-31(20-24-33)29-11-3-1-4-12-29)27-35-15-7-9-17-37(35)41(43)42-38-18-10-8-16-36(38)28-40(44(42)48-49)34-25-21-32(22-26-34)30-13-5-2-6-14-30/h19-30H,1-18H2,(H,45,46)

> <PUBCHEM_IUPAC_INCHIKEY>
WXOVDPZKRRWJAV-UHFFFAOYSA-N

> <PUBCHEM_XLOGP3_AA>
13.4

> <PUBCHEM_EXACT_MASS>
672.336847

> <PUBCHEM_MOLECULAR_FORMULA>
C44H49O4P

> <PUBCHEM_MOLECULAR_WEIGHT>
672.8

> <PUBCHEM_OPENEYE_CAN_SMILES>
C1CCC(CC1)C2=CC=C(C=C2)C3=C4C(=C5CCCCC5=C3)C6=C7CCCCC7=CC(=C6OP(=O)(O4)O)C8=CC=C(C=C8)C9CCCCC9

> <PUBCHEM_OPENEYE_ISO_SMILES>
C1CCC(CC1)C2=CC=C(C=C2)C3=C4C(=C5CCCCC5=C3)C6=C7CCCCC7=CC(=C6OP(=O)(O4)O)C8=CC=C(C=C8)C9CCCCC9

> <PUBCHEM_CACTVS_TPSA>
55.8

> <PUBCHEM_MONOISOTOPIC_WEIGHT>
672.336847

> <PUBCHEM_TOTAL_CHARGE>
0

> <PUBCHEM_HEAVY_ATOM_COUNT>
49

> <PUBCHEM_ATOM_DEF_STEREO_COUNT>
0

> <PUBCHEM_ATOM_UDEF_STEREO_COUNT>
0

> <PUBCHEM_BOND_DEF_STEREO_COUNT>
0

> <PUBCHEM_BOND_UDEF_STEREO_COUNT>
0

> <PUBCHEM_ISOTOPIC_ATOM_COUNT>
0

> <PUBCHEM_COMPONENT_COUNT>
1

> <PUBCHEM_CACTVS_TAUTO_COUNT>
-1

> <PUBCHEM_COORDINATE_TYPE>
1
5
255

> <PUBCHEM_BONDANNOTATIONS>
12  14  8
12  34  8
13  15  8
13  35  8
14  22  8
15  23  8
22  38  8
23  39  8
30  42  8
30  44  8
31  43  8
31  45  8
34  36  8
35  37  8
36  38  8
37  39  8
40  46  8
40  48  8
41  47  8
41  49  8
42  46  8
43  47  8
44  48  8
45  49  8

$$$$
