23110722
  -OEChem-04302101092D

 78 84  0     0  0  0  0  0  0999 V2000
    7.8928    0.8976    0.0000 P   0  0  0  0  0  0  0  0  0  0  0  0
   13.4532   -2.2052    0.0000 F   0  0  0  0  0  0  0  0  0  0  0  0
   13.1742   -0.8188    0.0000 F   0  0  0  0  0  0  0  0  0  0  0  0
   12.0668   -2.4842    0.0000 F   0  0  0  0  0  0  0  0  0  0  0  0
    7.0789    4.4079    0.0000 F   0  0  0  0  0  0  0  0  0  0  0  0
    5.6664    4.4771    0.0000 F   0  0  0  0  0  0  0  0  0  0  0  0
    7.0097    2.9954    0.0000 F   0  0  0  0  0  0  0  0  0  0  0  0
   11.1447    2.4500    0.0000 F   0  0  0  0  0  0  0  0  0  0  0  0
   12.0795    1.3888    0.0000 F   0  0  0  0  0  0  0  0  0  0  0  0
   10.0835    1.5152    0.0000 F   0  0  0  0  0  0  0  0  0  0  0  0
    2.0000    3.3103    0.0000 F   0  0  0  0  0  0  0  0  0  0  0  0
    3.2579    3.9566    0.0000 F   0  0  0  0  0  0  0  0  0  0  0  0
    2.6463    2.0524    0.0000 F   0  0  0  0  0  0  0  0  0  0  0  0
    8.5162    0.1158    0.0000 O   0  0  0  0  0  0  0  0  0  0  0  0
    6.8928    0.8976    0.0000 O   0  0  0  0  0  0  0  0  0  0  0  0
    8.6746    1.5211    0.0000 O   0  0  0  0  0  0  0  0  0  0  0  0
    7.8928    1.8976    0.0000 O   0  0  0  0  0  0  0  0  0  0  0  0
    7.2989   -2.3304    0.0000 C   0  0  0  0  0  0  0  0  0  0  0  0
    5.7392   -1.5793    0.0000 C   0  0  0  0  0  0  0  0  0  0  0  0
    7.3928   -1.2930    0.0000 C   0  0  0  0  0  0  0  0  0  0  0  0
    6.4918   -0.8592    0.0000 C   0  0  0  0  0  0  0  0  0  0  0  0
    6.3107   -2.7785    0.0000 C   0  0  0  0  0  0  0  0  0  0  0  0
    5.4435   -2.6232    0.0000 C   0  0  0  0  0  0  0  0  0  0  0  0
    8.1550   -2.9238    0.0000 C   0  0  0  0  0  0  0  0  0  0  0  0
    4.7415   -1.2800    0.0000 C   0  0  0  0  0  0  0  0  0  0  0  0
    6.2130   -3.8590    0.0000 C   0  0  0  0  0  0  0  0  0  0  0  0
    4.2951   -3.0339    0.0000 C   0  0  0  0  0  0  0  0  0  0  0  0
    8.0823   -4.0064    0.0000 C   0  0  0  0  0  0  0  0  0  0  0  0
    3.6819   -1.5133    0.0000 C   0  0  0  0  0  0  0  0  0  0  0  0
    7.1047   -4.4771    0.0000 C   0  0  0  0  0  0  0  0  0  0  0  0
    3.4566   -2.3971    0.0000 C   0  0  0  0  0  0  0  0  0  0  0  0
    8.2937   -0.8592    0.0000 C   0  0  0  0  0  0  0  0  0  0  0  0
    6.2693    0.1158    0.0000 C   0  0  0  0  0  0  0  0  0  0  0  0
    9.1633   -1.4326    0.0000 C   0  0  0  0  0  0  0  0  0  0  0  0
    5.2788    0.4381    0.0000 C   0  0  0  0  0  0  0  0  0  0  0  0
    9.0935   -2.4719    0.0000 C   0  0  0  0  0  0  0  0  0  0  0  0
    4.5098   -0.2645    0.0000 C   0  0  0  0  0  0  0  0  0  0  0  0
   10.0592   -0.9883    0.0000 C   0  0  0  0  0  0  0  0  0  0  0  0
    5.0675    1.4155    0.0000 C   0  0  0  0  0  0  0  0  0  0  0  0
   10.1224    0.0097    0.0000 C   0  0  0  0  0  0  0  0  0  0  0  0
    4.1154    1.7213    0.0000 C   0  0  0  0  0  0  0  0  0  0  0  0
   10.8919   -1.5420    0.0000 C   0  0  0  0  0  0  0  0  0  0  0  0
    5.8084    2.0872    0.0000 C   0  0  0  0  0  0  0  0  0  0  0  0
   11.0183    0.4540    0.0000 C   0  0  0  0  0  0  0  0  0  0  0  0
    3.9042    2.6988    0.0000 C   0  0  0  0  0  0  0  0  0  0  0  0
   11.7878   -1.0978    0.0000 C   0  0  0  0  0  0  0  0  0  0  0  0
    5.5972    3.0646    0.0000 C   0  0  0  0  0  0  0  0  0  0  0  0
   11.8510   -0.0998    0.0000 C   0  0  0  0  0  0  0  0  0  0  0  0
    4.6451    3.3704    0.0000 C   0  0  0  0  0  0  0  0  0  0  0  0
   12.6205   -1.6515    0.0000 C   0  0  0  0  0  0  0  0  0  0  0  0
    6.3380    3.7363    0.0000 C   0  0  0  0  0  0  0  0  0  0  0  0
   11.0815    1.4520    0.0000 C   0  0  0  0  0  0  0  0  0  0  0  0
    2.9521    3.0045    0.0000 C   0  0  0  0  0  0  0  0  0  0  0  0
    6.1551   -2.1783    0.0000 H   0  0  0  0  0  0  0  0  0  0  0  0
    5.6928   -2.8291    0.0000 H   0  0  0  0  0  0  0  0  0  0  0  0
    5.5281   -3.2374    0.0000 H   0  0  0  0  0  0  0  0  0  0  0  0
    6.0620   -2.6664    0.0000 H   0  0  0  0  0  0  0  0  0  0  0  0
    5.6142   -3.6984    0.0000 H   0  0  0  0  0  0  0  0  0  0  0  0
    5.9522   -4.4215    0.0000 H   0  0  0  0  0  0  0  0  0  0  0  0
    3.8326   -3.4467    0.0000 H   0  0  0  0  0  0  0  0  0  0  0  0
    4.6118   -3.5669    0.0000 H   0  0  0  0  0  0  0  0  0  0  0  0
    8.2517   -4.6028    0.0000 H   0  0  0  0  0  0  0  0  0  0  0  0
    8.6988   -3.9415    0.0000 H   0  0  0  0  0  0  0  0  0  0  0  0
    3.6440   -0.8944    0.0000 H   0  0  0  0  0  0  0  0  0  0  0  0
    3.0647   -1.4550    0.0000 H   0  0  0  0  0  0  0  0  0  0  0  0
    6.6695   -4.9188    0.0000 H   0  0  0  0  0  0  0  0  0  0  0  0
    7.4653   -4.9815    0.0000 H   0  0  0  0  0  0  0  0  0  0  0  0
    2.8815   -2.1655    0.0000 H   0  0  0  0  0  0  0  0  0  0  0  0
    3.1506   -2.9364    0.0000 H   0  0  0  0  0  0  0  0  0  0  0  0
    9.6071   -2.8192    0.0000 H   0  0  0  0  0  0  0  0  0  0  0  0
    3.9180   -0.0794    0.0000 H   0  0  0  0  0  0  0  0  0  0  0  0
    9.6061    0.3530    0.0000 H   0  0  0  0  0  0  0  0  0  0  0  0
    3.6561    1.3049    0.0000 H   0  0  0  0  0  0  0  0  0  0  0  0
   10.8527   -2.1608    0.0000 H   0  0  0  0  0  0  0  0  0  0  0  0
    6.3987    1.8976    0.0000 H   0  0  0  0  0  0  0  0  0  0  0  0
    8.5822    2.1342    0.0000 H   0  0  0  0  0  0  0  0  0  0  0  0
   12.4064    0.1757    0.0000 H   0  0  0  0  0  0  0  0  0  0  0  0
    4.5141    3.9764    0.0000 H   0  0  0  0  0  0  0  0  0  0  0  0
  1 14  1  0  0  0  0
  1 15  1  0  0  0  0
  1 16  1  0  0  0  0
  1 17  2  0  0  0  0
  2 50  1  0  0  0  0
  3 50  1  0  0  0  0
  4 50  1  0  0  0  0
  5 51  1  0  0  0  0
  6 51  1  0  0  0  0
  7 51  1  0  0  0  0
  8 52  1  0  0  0  0
  9 52  1  0  0  0  0
 10 52  1  0  0  0  0
 11 53  1  0  0  0  0
 12 53  1  0  0  0  0
 13 53  1  0  0  0  0
 14 32  1  0  0  0  0
 15 33  1  0  0  0  0
 16 76  1  0  0  0  0
 18 20  2  0  0  0  0
 18 22  1  0  0  0  0
 18 24  1  0  0  0  0
 19 21  2  0  0  0  0
 19 23  1  0  0  0  0
 19 25  1  0  0  0  0
 20 21  1  0  0  0  0
 20 32  1  0  0  0  0
 21 33  1  0  0  0  0
 22 26  1  0  0  0  0
 22 54  1  0  0  0  0
 22 55  1  0  0  0  0
 23 27  1  0  0  0  0
 23 56  1  0  0  0  0
 23 57  1  0  0  0  0
 24 28  1  0  0  0  0
 24 36  2  0  0  0  0
 25 29  1  0  0  0  0
 25 37  2  0  0  0  0
 26 30  1  0  0  0  0
 26 58  1  0  0  0  0
 26 59  1  0  0  0  0
 27 31  1  0  0  0  0
 27 60  1  0  0  0  0
 27 61  1  0  0  0  0
 28 30  1  0  0  0  0
 28 62  1  0  0  0  0
 28 63  1  0  0  0  0
 29 31  1  0  0  0  0
 29 64  1  0  0  0  0
 29 65  1  0  0  0  0
 30 66  1  0  0  0  0
 30 67  1  0  0  0  0
 31 68  1  0  0  0  0
 31 69  1  0  0  0  0
 32 34  2  0  0  0  0
 33 35  2  0  0  0  0
 34 36  1  0  0  0  0
 34 38  1  0  0  0  0
 35 37  1  0  0  0  0
 35 39  1  0  0  0  0
 36 70  1  0  0  0  0
 37 71  1  0  0  0  0
 38 40  2  0  0  0  0
 38 42  1  0  0  0  0
 39 41  2  0  0  0  0
 39 43  1  0  0  0  0
 40 44  1  0  0  0  0
 40 72  1  0  0  0  0
 41 45  1  0  0  0  0
 41 73  1  0  0  0  0
 42 46  2  0  0  0  0
 42 74  1  0  0  0  0
 43 47  2  0  0  0  0
 43 75  1  0  0  0  0
 44 48  2  0  0  0  0
 44 52  1  0  0  0  0
 45 49  2  0  0  0  0
 45 53  1  0  0  0  0
 46 48  1  0  0  0  0
 46 50  1  0  0  0  0
 47 49  1  0  0  0  0
 47 51  1  0  0  0  0
 48 77  1  0  0  0  0
 49 78  1  0  0  0  0
M  END
> <PUBCHEM_COMPOUND_CID>
23110722

> <PUBCHEM_COMPOUND_CANONICALIZED>
1

> <PUBCHEM_CACTVS_COMPLEXITY>
1210

> <PUBCHEM_CACTVS_HBOND_ACCEPTOR>
16

> <PUBCHEM_CACTVS_HBOND_DONOR>
1

> <PUBCHEM_CACTVS_ROTATABLE_BOND>
2

> <PUBCHEM_CACTVS_SUBSKEYS>
AAADceB8OcIAAAAAAAAAAAAAAAAAAAAAAAAwYMGDBIAAAADBVAAAGwAACCAADASAmBAwBoAAARCAQiBCAIACAAAgIAAAiAAECIgIJiKAERKAMAAkwBEIiAfAwPAO4AADAAAYAADAAAYAADAAAAAAAAAAAA==

> <PUBCHEM_IUPAC_OPENEYE_NAME>
10,16-bis[3,5-bis(trifluoromethyl)phenyl]-13-hydroxy-12,14-dioxa-13lambda5-phosphapentacyclo[13.8.0.02,11.03,8.018,23]tricosa-1(23),2,8,10,15,17-hexaene 13-oxide

> <PUBCHEM_IUPAC_CAS_NAME>
10,16-bis[3,5-bis(trifluoromethyl)phenyl]-13-hydroxy-12,14-dioxa-13lambda5-phosphapentacyclo[13.8.0.02,11.03,8.018,23]tricosa-1(23),2,8,10,15,17-hexaene 13-oxide

> <PUBCHEM_IUPAC_NAME_MARKUP>
10,16-bis[3,5-bis(trifluoromethyl)phenyl]-13-hydroxy-12,14-dioxa-13&lambda;<SUP>5</SUP>-phosphapentacyclo[13.8.0.0<SUP>2,11</SUP>.0<SUP>3,8</SUP>.0<SUP>18,23</SUP>]tricosa-1(23),2,8,10,15,17-hexaene 13-oxide

> <PUBCHEM_IUPAC_NAME>
10,16-bis[3,5-bis(trifluoromethyl)phenyl]-13-hydroxy-12,14-dioxa-13lambda5-phosphapentacyclo[13.8.0.02,11.03,8.018,23]tricosa-1(23),2,8,10,15,17-hexaene 13-oxide

> <PUBCHEM_IUPAC_SYSTEMATIC_NAME>
10,16-bis[3,5-bis(trifluoromethyl)phenyl]-13-oxidanyl-12,14-dioxa-13lambda5-phosphapentacyclo[13.8.0.02,11.03,8.018,23]tricosa-1(23),2,8,10,15,17-hexaene 13-oxide

> <PUBCHEM_IUPAC_TRADITIONAL_NAME>
10,16-bis[3,5-bis(trifluoromethyl)phenyl]-13-hydroxy-12,14-dioxa-13lambda5-phosphapentacyclo[13.8.0.02,11.03,8.018,23]tricosa-1(23),2,8,10,15,17-hexaene 13-oxide

> <PUBCHEM_IUPAC_INCHI>
InChI=1S/C36H25F12O4P/c37-33(38,39)21-9-19(10-22(15-21)34(40,41)42)27-13-17-5-1-3-7-25(17)29-30-26-8-4-2-6-18(26)14-28(32(30)52-53(49,50)51-31(27)29)20-11-23(35(43,44)45)16-24(12-20)36(46,47)48/h9-16H,1-8H2,(H,49,50)

> <PUBCHEM_IUPAC_INCHIKEY>
INSXQFYWKHPSHX-UHFFFAOYSA-N

> <PUBCHEM_XLOGP3_AA>
11.9

> <PUBCHEM_EXACT_MASS>
780.129884

> <PUBCHEM_MOLECULAR_FORMULA>
C36H25F12O4P

> <PUBCHEM_MOLECULAR_WEIGHT>
780.5

> <PUBCHEM_OPENEYE_CAN_SMILES>
C1CCC2=C3C4=C5CCCCC5=CC(=C4OP(=O)(OC3=C(C=C2C1)C6=CC(=CC(=C6)C(F)(F)F)C(F)(F)F)O)C7=CC(=CC(=C7)C(F)(F)F)C(F)(F)F

> <PUBCHEM_OPENEYE_ISO_SMILES>
C1CCC2=C3C4=C5CCCCC5=CC(=C4OP(=O)(OC3=C(C=C2C1)C6=CC(=CC(=C6)C(F)(F)F)C(F)(F)F)O)C7=CC(=CC(=C7)C(F)(F)F)C(F)(F)F

> <PUBCHEM_CACTVS_TPSA>
55.8

> <PUBCHEM_MONOISOTOPIC_WEIGHT>
780.129884

> <PUBCHEM_TOTAL_CHARGE>
0

> <PUBCHEM_HEAVY_ATOM_COUNT>
53

> <PUBCHEM_ATOM_DEF_STEREO_COUNT>
0

> <PUBCHEM_ATOM_UDEF_STEREO_COUNT>
0

> <PUBCHEM_BOND_DEF_STEREO_COUNT>
0

> <PUBCHEM_BOND_UDEF_STEREO_COUNT>
0

> <PUBCHEM_ISOTOPIC_ATOM_COUNT>
0

> <PUBCHEM_COMPONENT_COUNT>
1

> <PUBCHEM_CACTVS_TAUTO_COUNT>
-1

> <PUBCHEM_COORDINATE_TYPE>
1
5
255

> <PUBCHEM_BONDANNOTATIONS>
18  20  8
18  24  8
19  21  8
19  25  8
20  32  8
21  33  8
24  36  8
25  37  8
32  34  8
33  35  8
34  36  8
35  37  8
38  40  8
38  42  8
39  41  8
39  43  8
40  44  8
41  45  8
42  46  8
43  47  8
44  48  8
45  49  8
46  48  8
47  49  8

$$$$
